# vtk DataFile Version 2.0
Simplicial Mesh Example
ASCII
DATASET UNSTRUCTURED_GRID
POINTS 2500 double
0.000000e+00 0.000000e+00 0.0
6.000000e+03 0.000000e+00 0.0
6.000000e+03 6.000000e+03 0.0
0.000000e+00 6.000000e+03 0.0
1.224490e+02 6.000000e+03 0.0
2.448980e+02 6.000000e+03 0.0
3.673469e+02 6.000000e+03 0.0
4.897959e+02 6.000000e+03 0.0
6.122449e+02 6.000000e+03 0.0
7.346939e+02 6.000000e+03 0.0
8.571429e+02 6.000000e+03 0.0
9.795918e+02 6.000000e+03 0.0
1.102041e+03 6.000000e+03 0.0
1.224490e+03 6.000000e+03 0.0
1.346939e+03 6.000000e+03 0.0
1.469388e+03 6.000000e+03 0.0
1.591837e+03 6.000000e+03 0.0
1.714286e+03 6.000000e+03 0.0
1.836735e+03 6.000000e+03 0.0
1.959184e+03 6.000000e+03 0.0
2.081633e+03 6.000000e+03 0.0
2.204082e+03 6.000000e+03 0.0
2.326531e+03 6.000000e+03 0.0
2.448980e+03 6.000000e+03 0.0
2.571429e+03 6.000000e+03 0.0
2.693878e+03 6.000000e+03 0.0
2.816327e+03 6.000000e+03 0.0
2.938776e+03 6.000000e+03 0.0
3.061224e+03 6.000000e+03 0.0
3.183673e+03 6.000000e+03 0.0
3.306122e+03 6.000000e+03 0.0
3.428571e+03 6.000000e+03 0.0
3.551020e+03 6.000000e+03 0.0
3.673469e+03 6.000000e+03 0.0
3.795918e+03 6.000000e+03 0.0
3.918367e+03 6.000000e+03 0.0
4.040816e+03 6.000000e+03 0.0
4.163265e+03 6.000000e+03 0.0
4.285714e+03 6.000000e+03 0.0
4.408163e+03 6.000000e+03 0.0
4.530612e+03 6.000000e+03 0.0
4.653061e+03 6.000000e+03 0.0
4.775510e+03 6.000000e+03 0.0
4.897959e+03 6.000000e+03 0.0
5.020408e+03 6.000000e+03 0.0
5.142857e+03 6.000000e+03 0.0
5.265306e+03 6.000000e+03 0.0
5.387755e+03 6.000000e+03 0.0
5.510204e+03 6.000000e+03 0.0
5.632653e+03 6.000000e+03 0.0
5.755102e+03 6.000000e+03 0.0
5.877551e+03 6.000000e+03 0.0
6.000000e+03 5.877551e+03 0.0
6.000000e+03 5.755102e+03 0.0
6.000000e+03 5.632653e+03 0.0
6.000000e+03 5.510204e+03 0.0
6.000000e+03 5.387755e+03 0.0
6.000000e+03 5.265306e+03 0.0
6.000000e+03 5.142857e+03 0.0
6.000000e+03 5.020408e+03 0.0
6.000000e+03 4.897959e+03 0.0
6.000000e+03 4.775510e+03 0.0
6.000000e+03 4.653061e+03 0.0
6.000000e+03 4.530612e+03 0.0
6.000000e+03 4.408163e+03 0.0
6.000000e+03 4.285714e+03 0.0
6.000000e+03 4.163265e+03 0.0
6.000000e+03 4.040816e+03 0.0
6.000000e+03 3.918367e+03 0.0
6.000000e+03 3.795918e+03 0.0
6.000000e+03 3.673469e+03 0.0
6.000000e+03 3.551020e+03 0.0
6.000000e+03 3.428571e+03 0.0
6.000000e+03 3.306122e+03 0.0
6.000000e+03 3.183673e+03 0.0
6.000000e+03 3.061224e+03 0.0
6.000000e+03 2.938776e+03 0.0
6.000000e+03 2.816327e+03 0.0
6.000000e+03 2.693878e+03 0.0
6.000000e+03 2.571429e+03 0.0
6.000000e+03 2.448980e+03 0.0
6.000000e+03 2.326531e+03 0.0
6.000000e+03 2.204082e+03 0.0
6.000000e+03 2.081633e+03 0.0
6.000000e+03 1.959184e+03 0.0
6.000000e+03 1.836735e+03 0.0
6.000000e+03 1.714286e+03 0.0
6.000000e+03 1.591837e+03 0.0
6.000000e+03 1.469388e+03 0.0
6.000000e+03 1.346939e+03 0.0
6.000000e+03 1.224490e+03 0.0
6.000000e+03 1.102041e+03 0.0
6.000000e+03 9.795918e+02 0.0
6.000000e+03 8.571429e+02 0.0
6.000000e+03 7.346939e+02 0.0
6.000000e+03 6.122449e+02 0.0
6.000000e+03 4.897959e+02 0.0
6.000000e+03 3.673469e+02 0.0
6.000000e+03 2.448980e+02 0.0
6.000000e+03 1.224490e+02 0.0
5.877551e+03 0.000000e+00 0.0
5.755102e+03 0.000000e+00 0.0
5.632653e+03 0.000000e+00 0.0
5.510204e+03 0.000000e+00 0.0
5.387755e+03 0.000000e+00 0.0
5.265306e+03 0.000000e+00 0.0
5.142857e+03 0.000000e+00 0.0
5.020408e+03 0.000000e+00 0.0
4.897959e+03 0.000000e+00 0.0
4.775510e+03 0.000000e+00 0.0
4.653061e+03 0.000000e+00 0.0
4.530612e+03 0.000000e+00 0.0
4.408163e+03 0.000000e+00 0.0
4.285714e+03 0.000000e+00 0.0
4.163265e+03 0.000000e+00 0.0
4.040816e+03 0.000000e+00 0.0
3.918367e+03 0.000000e+00 0.0
3.795918e+03 0.000000e+00 0.0
3.673469e+03 0.000000e+00 0.0
3.551020e+03 0.000000e+00 0.0
3.428571e+03 0.000000e+00 0.0
3.306122e+03 0.000000e+00 0.0
3.183673e+03 0.000000e+00 0.0
3.061224e+03 0.000000e+00 0.0
2.938776e+03 0.000000e+00 0.0
2.816327e+03 0.000000e+00 0.0
2.693878e+03 0.000000e+00 0.0
2.571429e+03 0.000000e+00 0.0
2.448980e+03 0.000000e+00 0.0
2.326531e+03 0.000000e+00 0.0
2.204082e+03 0.000000e+00 0.0
2.081633e+03 0.000000e+00 0.0
1.959184e+03 0.000000e+00 0.0
1.836735e+03 0.000000e+00 0.0
1.714286e+03 0.000000e+00 0.0
1.591837e+03 0.000000e+00 0.0
1.469388e+03 0.000000e+00 0.0
1.346939e+03 0.000000e+00 0.0
1.224490e+03 0.000000e+00 0.0
1.102041e+03 0.000000e+00 0.0
9.795918e+02 0.000000e+00 0.0
8.571429e+02 0.000000e+00 0.0
7.346939e+02 0.000000e+00 0.0
6.122449e+02 0.000000e+00 0.0
4.897959e+02 0.000000e+00 0.0
3.673469e+02 0.000000e+00 0.0
2.448980e+02 0.000000e+00 0.0
1.224490e+02 0.000000e+00 0.0
0.000000e+00 1.224490e+02 0.0
0.000000e+00 2.448980e+02 0.0
0.000000e+00 3.673469e+02 0.0
0.000000e+00 4.897959e+02 0.0
0.000000e+00 6.122449e+02 0.0
0.000000e+00 7.346939e+02 0.0
0.000000e+00 8.571429e+02 0.0
0.000000e+00 9.795918e+02 0.0
0.000000e+00 1.102041e+03 0.0
0.000000e+00 1.224490e+03 0.0
0.000000e+00 1.346939e+03 0.0
0.000000e+00 1.469388e+03 0.0
0.000000e+00 1.591837e+03 0.0
0.000000e+00 1.714286e+03 0.0
0.000000e+00 1.836735e+03 0.0
0.000000e+00 1.959184e+03 0.0
0.000000e+00 2.081633e+03 0.0
0.000000e+00 2.204082e+03 0.0
0.000000e+00 2.326531e+03 0.0
0.000000e+00 2.448980e+03 0.0
0.000000e+00 2.571429e+03 0.0
0.000000e+00 2.693878e+03 0.0
0.000000e+00 2.816327e+03 0.0
0.000000e+00 2.938776e+03 0.0
0.000000e+00 3.061224e+03 0.0
0.000000e+00 3.183673e+03 0.0
0.000000e+00 3.306122e+03 0.0
0.000000e+00 3.428571e+03 0.0
0.000000e+00 3.551020e+03 0.0
0.000000e+00 3.673469e+03 0.0
0.000000e+00 3.795918e+03 0.0
0.000000e+00 3.918367e+03 0.0
0.000000e+00 4.040816e+03 0.0
0.000000e+00 4.163265e+03 0.0
0.000000e+00 4.285714e+03 0.0
0.000000e+00 4.408163e+03 0.0
0.000000e+00 4.530612e+03 0.0
0.000000e+00 4.653061e+03 0.0
0.000000e+00 4.775510e+03 0.0
0.000000e+00 4.897959e+03 0.0
0.000000e+00 5.020408e+03 0.0
0.000000e+00 5.142857e+03 0.0
0.000000e+00 5.265306e+03 0.0
0.000000e+00 5.387755e+03 0.0
0.000000e+00 5.510204e+03 0.0
0.000000e+00 5.632653e+03 0.0
0.000000e+00 5.755102e+03 0.0
0.000000e+00 5.877551e+03 0.0
1.224490e+02 1.224490e+02 0.0
1.224490e+02 2.448980e+02 0.0
1.224490e+02 3.673469e+02 0.0
1.224490e+02 4.897959e+02 0.0
1.224490e+02 6.122449e+02 0.0
1.224490e+02 7.346939e+02 0.0
1.224490e+02 8.571429e+02 0.0
1.224490e+02 9.795918e+02 0.0
1.224490e+02 1.102041e+03 0.0
1.224490e+02 1.224490e+03 0.0
1.224490e+02 1.346939e+03 0.0
1.224490e+02 1.469388e+03 0.0
1.224490e+02 1.591837e+03 0.0
1.224490e+02 1.714286e+03 0.0
1.224490e+02 1.836735e+03 0.0
1.224490e+02 1.959184e+03 0.0
1.224490e+02 2.081633e+03 0.0
1.224490e+02 2.204082e+03 0.0
1.224490e+02 2.326531e+03 0.0
1.224490e+02 2.448980e+03 0.0
1.224490e+02 2.571429e+03 0.0
1.224490e+02 2.693878e+03 0.0
1.224490e+02 2.816327e+03 0.0
1.224490e+02 2.938776e+03 0.0
1.224490e+02 3.061224e+03 0.0
1.224490e+02 3.183673e+03 0.0
1.224490e+02 3.306122e+03 0.0
1.224490e+02 3.428571e+03 0.0
1.224490e+02 3.551020e+03 0.0
1.224490e+02 3.673469e+03 0.0
1.224490e+02 3.795918e+03 0.0
1.224490e+02 3.918367e+03 0.0
1.224490e+02 4.040816e+03 0.0
1.224490e+02 4.163265e+03 0.0
1.224490e+02 4.285714e+03 0.0
1.224490e+02 4.408163e+03 0.0
1.224490e+02 4.530612e+03 0.0
1.224490e+02 4.653061e+03 0.0
1.224490e+02 4.775510e+03 0.0
1.224490e+02 4.897959e+03 0.0
1.224490e+02 5.020408e+03 0.0
1.224490e+02 5.142857e+03 0.0
1.224490e+02 5.265306e+03 0.0
1.224490e+02 5.387755e+03 0.0
1.224490e+02 5.510204e+03 0.0
1.224490e+02 5.632653e+03 0.0
1.224490e+02 5.755102e+03 0.0
1.224490e+02 5.877551e+03 0.0
2.448980e+02 1.224490e+02 0.0
2.448980e+02 2.448980e+02 0.0
2.448980e+02 3.673469e+02 0.0
2.448980e+02 4.897959e+02 0.0
2.448980e+02 6.122449e+02 0.0
2.448980e+02 7.346939e+02 0.0
2.448980e+02 8.571429e+02 0.0
2.448980e+02 9.795918e+02 0.0
2.448980e+02 1.102041e+03 0.0
2.448980e+02 1.224490e+03 0.0
2.448980e+02 1.346939e+03 0.0
2.448980e+02 1.469388e+03 0.0
2.448980e+02 1.591837e+03 0.0
2.448980e+02 1.714286e+03 0.0
2.448980e+02 1.836735e+03 0.0
2.448980e+02 1.959184e+03 0.0
2.448980e+02 2.081633e+03 0.0
2.448980e+02 2.204082e+03 0.0
2.448980e+02 2.326531e+03 0.0
2.448980e+02 2.448980e+03 0.0
2.448980e+02 2.571429e+03 0.0
2.448980e+02 2.693878e+03 0.0
2.448980e+02 2.816327e+03 0.0
2.448980e+02 2.938776e+03 0.0
2.448980e+02 3.061224e+03 0.0
2.448980e+02 3.183673e+03 0.0
2.448980e+02 3.306122e+03 0.0
2.448980e+02 3.428571e+03 0.0
2.448980e+02 3.551020e+03 0.0
2.448980e+02 3.673469e+03 0.0
2.448980e+02 3.795918e+03 0.0
2.448980e+02 3.918367e+03 0.0
2.448980e+02 4.040816e+03 0.0
2.448980e+02 4.163265e+03 0.0
2.448980e+02 4.285714e+03 0.0
2.448980e+02 4.408163e+03 0.0
2.448980e+02 4.530612e+03 0.0
2.448980e+02 4.653061e+03 0.0
2.448980e+02 4.775510e+03 0.0
2.448980e+02 4.897959e+03 0.0
2.448980e+02 5.020408e+03 0.0
2.448980e+02 5.142857e+03 0.0
2.448980e+02 5.265306e+03 0.0
2.448980e+02 5.387755e+03 0.0
2.448980e+02 5.510204e+03 0.0
2.448980e+02 5.632653e+03 0.0
2.448980e+02 5.755102e+03 0.0
2.448980e+02 5.877551e+03 0.0
3.673469e+02 1.224490e+02 0.0
3.673469e+02 2.448980e+02 0.0
3.673469e+02 3.673469e+02 0.0
3.673469e+02 4.897959e+02 0.0
3.673469e+02 6.122449e+02 0.0
3.673469e+02 7.346939e+02 0.0
3.673469e+02 8.571429e+02 0.0
3.673469e+02 9.795918e+02 0.0
3.673469e+02 1.102041e+03 0.0
3.673469e+02 1.224490e+03 0.0
3.673469e+02 1.346939e+03 0.0
3.673469e+02 1.469388e+03 0.0
3.673469e+02 1.591837e+03 0.0
3.673469e+02 1.714286e+03 0.0
3.673469e+02 1.836735e+03 0.0
3.673469e+02 1.959184e+03 0.0
3.673469e+02 2.081633e+03 0.0
3.673469e+02 2.204082e+03 0.0
3.673469e+02 2.326531e+03 0.0
3.673469e+02 2.448980e+03 0.0
3.673469e+02 2.571429e+03 0.0
3.673469e+02 2.693878e+03 0.0
3.673469e+02 2.816327e+03 0.0
3.673469e+02 2.938776e+03 0.0
3.673469e+02 3.061224e+03 0.0
3.673469e+02 3.183673e+03 0.0
3.673469e+02 3.306122e+03 0.0
3.673469e+02 3.428571e+03 0.0
3.673469e+02 3.551020e+03 0.0
3.673469e+02 3.673469e+03 0.0
3.673469e+02 3.795918e+03 0.0
3.673469e+02 3.918367e+03 0.0
3.673469e+02 4.040816e+03 0.0
3.673469e+02 4.163265e+03 0.0
3.673469e+02 4.285714e+03 0.0
3.673469e+02 4.408163e+03 0.0
3.673469e+02 4.530612e+03 0.0
[...]
POINT_DATA 2500
SCALARS Pressure double 1
LOOKUP_TABLE default
4.028360e+03
3.997452e+03
3.870380e+03
3.997452e+03
3.997405e+03
3.997264e+03
3.997025e+03
3.996682e+03
3.996226e+03
3.995645e+03
3.994926e+03
3.994051e+03
3.992999e+03
3.991746e+03
3.990263e+03
3.988518e+03
3.986472e+03
3.984085e+03
3.981308e+03
3.978089e+03
3.974370e+03
3.970088e+03
3.965177e+03
3.959566e+03
3.953185e+03
3.945967e+03
3.937852e+03
3.928795e+03
3.918777e+03
3.907811e+03
3.895966e+03
3.883373e+03
3.870251e+03
3.856911e+03
3.843766e+03
3.831317e+03
3.820130e+03
3.810782e+03
3.803795e+03
3.799565e+03
3.798299e+03
3.799971e+03
3.804319e+03
3.810881e+03
3.819050e+03
3.828150e+03
3.837499e+03
3.846472e+03
3.854526e+03
3.861225e+03
3.866237e+03
3.869333e+03
3.869333e+03
3.866237e+03
3.861225e+03
3.854526e+03
3.846472e+03
3.837499e+03
3.828150e+03
3.819050e+03
3.810881e+03
3.804319e+03
3.799971e+03
3.798299e+03
3.799565e+03
3.803795e+03
3.810782e+03
3.820130e+03
3.831317e+03
3.843766e+03
3.856911e+03
3.870251e+03
3.883373e+03
3.895966e+03
3.907811e+03
3.918777e+03
3.928795e+03
3.937852e+03
3.945967e+03
3.953185e+03
3.959566e+03
3.965177e+03
3.970088e+03
3.974370e+03
3.978089e+03
3.981308e+03
3.984085e+03
3.986472e+03
3.988518e+03
3.990263e+03
3.991746e+03
3.992999e+03
3.994051e+03
3.994926e+03
3.995645e+03
3.996226e+03
3.996682e+03
3.997025e+03
3.997264e+03
3.997405e+03
3.997460e+03
3.997485e+03
3.997527e+03
3.997588e+03
3.997671e+03
3.997777e+03
3.997911e+03
3.998076e+03
3.998277e+03
3.998519e+03
3.998809e+03
3.999153e+03
3.999560e+03
4.000036e+03
4.000593e+03
4.001238e+03
4.001984e+03
4.002841e+03
4.003821e+03
4.004936e+03
4.006196e+03
4.007611e+03
4.009188e+03
4.010932e+03
4.012842e+03
4.014909e+03
4.017117e+03
4.019441e+03
4.021841e+03
4.024266e+03
4.026653e+03
4.028928e+03
4.031010e+03
4.032819e+03
4.034285e+03
4.035352e+03
4.035989e+03
4.036193e+03
4.035994e+03
4.035446e+03
4.034625e+03
4.033620e+03
4.032525e+03
4.031431e+03
4.030420e+03
4.029560e+03
4.028906e+03
4.028499e+03
4.028499e+03
4.028906e+03
4.029560e+03
4.030420e+03
4.031431e+03
4.032525e+03
4.033620e+03
4.034625e+03
4.035446e+03
4.035994e+03
4.036193e+03
4.035989e+03
4.035352e+03
4.034285e+03
4.032819e+03
4.031010e+03
4.028928e+03
4.026653e+03
4.024266e+03
4.021841e+03
4.019441e+03
4.017117e+03
4.014909e+03
4.012842e+03
4.010932e+03
4.009188e+03
4.007611e+03
4.006196e+03
4.004936e+03
4.003821e+03
4.002841e+03
4.001984e+03
4.001238e+03
4.000593e+03
4.000036e+03
3.999560e+03
3.999153e+03
3.998809e+03
3.998519e+03
3.998277e+03
3.998076e+03
3.997911e+03
3.997777e+03
3.997671e+03
3.997588e+03
3.997527e+03
3.997485e+03
3.997460e+03
4.028641e+03
4.029062e+03
4.029736e+03
4.030625e+03
4.031673e+03
4.032811e+03
4.033952e+03
4.035005e+03
4.035871e+03
4.036457e+03
4.036682e+03
4.036488e+03
4.035845e+03
4.034755e+03
4.033253e+03
4.031397e+03
4.029263e+03
4.026935e+03
4.024496e+03
4.022023e+03
4.019581e+03
4.017222e+03
4.014983e+03
4.012891e+03
4.010961e+03
4.009201e+03
4.007611e+03
4.006185e+03
4.004917e+03
4.003796e+03
4.002810e+03
4.001949e+03
4.001200e+03
4.000552e+03
3.999993e+03
3.999515e+03
3.999108e+03
3.998763e+03
3.998472e+03
3.998229e+03
3.998028e+03
3.997863e+03
3.997730e+03
3.997624e+03
3.997541e+03
3.997480e+03
3.997438e+03
3.997414e+03
4.029062e+03
4.029520e+03
4.030258e+03
4.031235e+03
4.032394e+03
4.033662e+03
4.034948e+03
4.036150e+03
4.037156e+03
4.037859e+03
4.038165e+03
4.038004e+03
4.037341e+03
4.036181e+03
4.034564e+03
4.032564e+03
4.030269e+03
4.027777e+03
4.025181e+03
4.022564e+03
4.019996e+03
4.017529e+03
4.015200e+03
4.013034e+03
4.011044e+03
4.009236e+03
4.007607e+03
4.006150e+03
4.004857e+03
4.003717e+03
4.002716e+03
4.001842e+03
4.001083e+03
4.000427e+03
3.999863e+03
3.999380e+03
3.998969e+03
3.998622e+03
3.998330e+03
3.998086e+03
3.997884e+03
3.997720e+03
3.997586e+03
3.997481e+03
3.997399e+03
3.997338e+03
3.997297e+03
3.997272e+03
4.029736e+03
4.030258e+03
4.031101e+03
4.032226e+03
4.033575e+03
4.035067e+03
4.036604e+03
4.038066e+03
4.039322e+03
4.040237e+03
4.040689e+03
4.040590e+03
4.039892e+03
4.038605e+03
4.036785e+03
4.034528e+03
4.031951e+03
4.029173e+03
4.026308e+03
4.023448e+03
4.020668e+03
4.018021e+03
4.015544e+03
4.013257e+03
4.011169e+03
4.009282e+03
4.007589e+03
4.006083e+03
4.004750e+03
4.003577e+03
4.002551e+03
4.001657e+03
4.000882e+03
4.000213e+03
3.999639e+03
3.999149e+03
3.998733e+03
3.998381e+03
3.998087e+03
3.997842e+03
3.997640e+03
3.997475e+03
3.997343e+03
3.997238e+03
3.997157e+03
3.997098e+03
3.997057e+03
3.997033e+03
4.030625e+03
4.031235e+03
4.032226e+03
4.033561e+03
4.035181e+03
4.037000e+03
4.038909e+03
4.040766e+03
4.042407e+03
4.043654e+03
4.044342e+03
4.044343e+03
4.043593e+03
4.042106e+03
4.039967e+03
4.037315e+03
4.034310e+03
4.031109e+03
4.027851e+03
4.024643e+03
4.021565e+03
4.018669e+03
4.015988e+03
4.013535e+03
4.011314e+03
4.009321e+03
4.007544e+03
4.005970e+03
4.004583e+03
4.003367e+03
4.002306e+03
4.001385e+03
4.000588e+03
3.999902e+03
3.999315e+03
3.998814e+03
3.998391e+03
3.998034e+03
3.997737e+03
3.997490e+03
3.997288e+03
3.997124e+03
3.996992e+03
3.996889e+03
3.996810e+03
3.996752e+03
3.996713e+03
3.996690e+03
4.031673e+03
4.032394e+03
4.033575e+03
4.035181e+03
4.037155e+03
4.039414e+03
4.041836e+03
4.044254e+03
4.046459e+03
4.048207e+03
4.049258e+03
4.049419e+03
4.048591e+03
4.046801e+03
4.044186e+03
4.040954e+03
4.037338e+03
4.033551e+03
4.029764e+03
4.026099e+03
4.022638e+03
4.019428e+03
4.016492e+03
4.013835e+03
4.011452e+03
4.009329e+03
4.007449e+03
4.005793e+03
4.004340e+03
4.003071e+03
4.001968e+03
4.001013e+03
4.000189e+03
3.999481e+03
3.998877e+03
3.998365e+03
3.997932e+03
3.997569e+03
3.997268e+03
3.997020e+03
3.996818e+03
3.996655e+03
3.996525e+03
3.996425e+03
3.996348e+03
3.996293e+03
3.996255e+03
3.996233e+03
4.032811e+03
4.033662e+03
4.035067e+03
4.037000e+03
4.039414e+03
4.042232e+03
4.045330e+03
4.048518e+03
4.051530e+03
4.054026e+03
4.055637e+03
4.056053e+03
4.055113e+03
4.052862e+03
4.049534e+03
4.045467e+03
4.041005e+03
4.036438e+03
4.031973e+03
4.027742e+03
4.023819e+03
4.020237e+03
4.017006e+03
4.014115e+03
4.011545e+03
4.009275e+03
4.007278e+03
4.005528e+03
4.004000e+03
4.002671e+03
4.001518e+03
4.000523e+03
3.999668e+03
3.998935e+03
3.998312e+03
3.997784e+03
3.997341e+03
3.996971e+03
3.996666e+03
3.996417e+03
3.996215e+03
3.996055e+03
3.995929e+03
3.995832e+03
3.995759e+03
3.995707e+03
3.995672e+03
3.995652e+03
4.033952e+03
4.034948e+03
4.036604e+03
4.038909e+03
4.041836e+03
4.045330e+03
4.049283e+03
4.053501e+03
4.057659e+03
4.061280e+03
4.063780e+03
4.064618e+03
4.063504e+03
4.060530e+03
4.056119e+03
4.050844e+03
4.045230e+03
4.039658e+03
4.034363e+03
4.029465e+03
4.025015e+03
4.021021e+03
4.017465e+03
4.014320e+03
4.011552e+03
4.009123e+03
4.006999e+03
4.005148e+03
4.003538e+03
4.002142e+03
4.000935e+03
3.999896e+03
3.999004e+03
3.998243e+03
3.997597e+03
3.997053e+03
3.996598e+03
3.996222e+03
3.995913e+03
3.995663e+03
3.995464e+03
3.995307e+03
3.995187e+03
3.995095e+03
3.995028e+03
3.994981e+03
3.994950e+03
3.994932e+03
4.035005e+03
4.036150e+03
4.038066e+03
4.040766e+03
4.044254e+03
4.048518e+03
4.053501e+03
4.059048e+03
4.064819e+03
4.070171e+03
4.074145e+03
4.075725e+03
4.074327e+03
4.070144e+03
4.064024e+03
4.056990e+03
4.049836e+03
4.043023e+03
4.036763e+03
4.031127e+03
4.026113e+03
4.021686e+03
4.017798e+03
4.014394e+03
4.011422e+03
4.008832e+03
4.006579e+03
4.004622e+03
4.002926e+03
4.001459e+03
4.000194e+03
3.999106e+03
3.998174e+03
3.997382e+03
3.996711e+03
3.996149e+03
3.995681e+03
3.995297e+03
3.994986e+03
3.994737e+03
3.994542e+03
3.994392e+03
3.994278e+03
3.994195e+03
3.994136e+03
3.994096e+03
3.994070e+03
3.994056e+03
4.035871e+03
4.037156e+03
4.039322e+03
4.042407e+03
4.046459e+03
4.051530e+03
4.057659e+03
4.064819e+03
4.072796e+03
4.080871e+03
4.087464e+03
4.090472e+03
4.088548e+03
4.082160e+03
4.073204e+03
4.063612e+03
4.054491e+03
4.046242e+03
4.038944e+03
4.032551e+03
4.026977e+03
4.022131e+03
4.017923e+03
4.014272e+03
4.011105e+03
4.008359e+03
4.005979e+03
4.003917e+03
4.002133e+03
4.000592e+03
3.999264e+03
3.998123e+03
3.997149e+03
3.996321e+03
3.995623e+03
3.995041e+03
3.994560e+03
3.994170e+03
3.993857e+03
3.993611e+03
3.993423e+03
3.993282e+03
3.993180e+03
3.993109e+03
3.993061e+03
3.993030e+03
3.993012e+03
3.993002e+03
4.036457e+03
4.037859e+03
4.040237e+03
4.043654e+03
4.048207e+03
4.054026e+03
4.061280e+03
4.070171e+03
4.080871e+03
4.093238e+03
4.104939e+03
4.111079e+03
4.108036e+03
4.097055e+03
4.083127e+03
4.070018e+03
4.058639e+03
4.048917e+03
4.040624e+03
4.033537e+03
4.027466e+03
4.022251e+03
4.017762e+03
4.013892e+03
4.010550e+03
4.007660e+03
4.005160e+03
4.002996e+03
4.001123e+03
3.999506e+03
3.998112e+03
3.996915e+03
3.995893e+03
3.995026e+03
3.994299e+03
3.993695e+03
3.993201e+03
3.992804e+03
3.992492e+03
3.992253e+03
3.992075e+03
3.991948e+03
3.991862e+03
3.991807e+03
3.991775e+03
3.991758e+03
3.991750e+03
3.991747e+03
4.036682e+03
4.038165e+03
4.040689e+03
4.044342e+03
4.049258e+03
4.055637e+03
4.063780e+03
4.074145e+03
4.087464e+03
4.104939e+03
4.129292e+03
4.141968e+03
4.137797e+03
4.113899e+03
4.091869e+03
4.074962e+03
4.061526e+03
4.050582e+03
4.041508e+03
4.033892e+03
4.027443e+03
4.021947e+03
4.017241e+03
4.013196e+03
4.009708e+03
4.006693e+03
4.004083e+03
4.001821e+03
3.999861e+03
3.998164e+03
3.996700e+03
3.995441e+03
3.994366e+03
3.993457e+03
3.992696e+03
3.992068e+03
3.991560e+03
3.991159e+03
3.990850e+03
3.990622e+03
3.990460e+03
3.990354e+03
3.990290e+03
3.990258e+03
3.990247e+03
3.990248e+03
3.990255e+03
3.990261e+03
4.036488e+03
4.038004e+03
4.040590e+03
4.044343e+03
4.049419e+03
4.056053e+03
4.064618e+03
4.075725e+03
4.090472e+03
4.111079e+03
4.141968e+03
4.249168e+03
4.180047e+03
4.123455e+03
4.096102e+03
4.076946e+03
4.062400e+03
4.050824e+03
4.041351e+03
4.033458e+03
4.026804e+03
4.021145e+03
4.016302e+03
4.012135e+03
4.008537e+03
4.005418e+03
4.002710e+03
4.000354e+03
3.998305e+03
3.996525e+03
3.994984e+03
3.993656e+03
3.992522e+03
3.991563e+03
3.990764e+03
3.990111e+03
3.989589e+03
3.989184e+03
3.988883e+03
3.988671e+03
3.988533e+03
3.988455e+03
3.988423e+03
3.988422e+03
3.988441e+03
3.988467e+03
3.988493e+03
3.988511e+03
4.035845e+03
4.037341e+03
4.039892e+03
4.043593e+03
4.048591e+03
4.055113e+03
4.063504e+03
4.074327e+03
4.088548e+03
4.108036e+03
4.137797e+03
4.180047e+03
4.156760e+03
4.118988e+03
4.093450e+03
4.075054e+03
4.060842e+03
4.049426e+03
4.040024e+03
4.032155e+03
4.025491e+03
4.019800e+03
4.014906e+03
4.010676e+03
4.007003e+03
4.003801e+03
4.001004e+03
3.998555e+03
3.996413e+03
3.994542e+03
3.992914e+03
3.991507e+03
3.990303e+03
3.989287e+03
3.988444e+03
3.987761e+03
3.987224e+03
3.986819e+03
3.986531e+03
3.986344e+03
3.986240e+03
3.986202e+03
3.986212e+03
3.986254e+03
3.986313e+03
3.986374e+03
3.986425e+03
3.986460e+03
4.034755e+03
4.036181e+03
4.038605e+03
4.042106e+03
4.046801e+03
4.052862e+03
4.060530e+03
4.070144e+03
4.082160e+03
4.097055e+03
4.113899e+03
4.123455e+03
4.118988e+03
4.102605e+03
4.084807e+03
4.069609e+03
4.056989e+03
4.046448e+03
4.037558e+03
4.029992e+03
4.023503e+03
4.017902e+03
4.013040e+03
4.008798e+03
4.005081e+03
4.001811e+03
3.998929e+03
3.996384e+03
3.994138e+03
3.992162e+03
3.990432e+03
3.988931e+03
3.987644e+03
3.986558e+03
3.985662e+03
3.984945e+03
3.984393e+03
3.983991e+03
3.983723e+03
3.983571e+03
3.983514e+03
3.983531e+03
3.983600e+03
3.983701e+03
3.983814e+03
3.983921e+03
3.984008e+03
3.984065e+03
4.033253e+03
4.034564e+03
4.036785e+03
4.039967e+03
4.044186e+03
4.049534e+03
4.056119e+03
4.064024e+03
4.073204e+03
4.083127e+03
4.091869e+03
4.096102e+03
4.093450e+03
4.084807e+03
4.073400e+03
4.061919e+03
4.051448e+03
4.042204e+03
4.034121e+03
4.027065e+03
4.020893e+03
4.015479e+03
4.010711e+03
4.006495e+03
4.002754e+03
3.999422e+03
3.996450e+03
3.993795e+03
3.991429e+03
3.989327e+03
3.987473e+03
3.985855e+03
3.984464e+03
3.983292e+03
3.982331e+03
3.981573e+03
3.981004e+03
3.980611e+03
3.980373e+03
3.980271e+03
3.980279e+03
3.980371e+03
3.980520e+03
3.980701e+03
3.980887e+03
3.981056e+03
3.981191e+03
3.981278e+03
4.031397e+03
4.032564e+03
4.034528e+03
4.037315e+03
4.040954e+03
4.045467e+03
4.050844e+03
4.056990e+03
4.063612e+03
4.070018e+03
4.074962e+03
4.076946e+03
4.075054e+03
4.069609e+03
4.061919e+03
4.053398e+03
4.044985e+03
4.037126e+03
4.029969e+03
4.023527e+03
4.017753e+03
4.012583e+03
4.007945e+03
4.003773e+03
4.000011e+03
3.996610e+03
3.993530e+03
3.990742e+03
3.988225e+03
3.985966e+03
3.983955e+03
3.982189e+03
3.980666e+03
3.979386e+03
3.978344e+03
3.977535e+03
3.976949e+03
3.976569e+03
3.976376e+03
3.976343e+03
3.976440e+03
3.976635e+03
3.976893e+03
3.977181e+03
3.977466e+03
3.977720e+03
3.977919e+03
3.978046e+03
4.029263e+03
4.030269e+03
4.031951e+03
4.034310e+03
4.037338e+03
4.041005e+03
4.045230e+03
4.049836e+03
4.054491e+03
4.058639e+03
4.061526e+03
4.062400e+03
4.060842e+03
4.056989e+03
4.051448e+03
4.044985e+03
4.038241e+03
4.031630e+03
4.025369e+03
4.019550e+03
4.014192e+03
4.009279e+03
4.004776e+03
4.000644e+03
3.996846e+03
3.993349e+03
3.990130e+03
3.987170e+03
3.984460e+03
3.981997e+03
3.979784e+03
3.977828e+03
3.976135e+03
3.974714e+03
3.973569e+03
3.972697e+03
3.972091e+03
3.971734e+03
3.971603e+03
3.971666e+03
3.971886e+03
3.972220e+03
3.972626e+03
3.973058e+03
3.973476e+03
3.973843e+03
3.974128e+03
3.974308e+03
4.026935e+03
4.027777e+03
4.029173e+03
4.031109e+03
4.033551e+03
4.036438e+03
4.039658e+03
4.043023e+03
4.046242e+03
4.048917e+03
4.050582e+03
4.050824e+03
4.049426e+03
4.046448e+03
4.042204e+03
4.037126e+03
4.031630e+03
4.026036e+03
4.020552e+03
4.015294e+03
4.010318e+03
4.005636e+03
4.001242e+03
3.997119e+03
3.993249e+03
3.989615e+03
3.986205e+03
3.983016e+03
3.980053e+03
3.977324e+03
3.974847e+03
3.972641e+03
3.970727e+03
3.969123e+03
3.967842e+03
3.966890e+03
3.966261e+03
3.965939e+03
3.965895e+03
3.966091e+03
3.966478e+03
3.967003e+03
3.967607e+03
3.968235e+03
3.968832e+03
3.969350e+03
3.969750e+03
3.970002e+03
4.024496e+03
4.025181e+03
4.026308e+03
4.027851e+03
4.029764e+03
4.031973e+03
4.034363e+03
4.036763e+03
4.038944e+03
4.040624e+03
4.041508e+03
4.041351e+03
4.040024e+03
4.037558e+03
4.034121e+03
4.029969e+03
4.025369e+03
4.020552e+03
4.015688e+03
4.010890e+03
4.006222e+03
4.001714e+03
3.997377e+03
3.993211e+03
3.989211e+03
3.985374e+03
3.981703e+03
3.978208e+03
3.974909e+03
3.971830e+03
3.969005e+03
3.966471e+03
3.964264e+03
3.962419e+03
3.960962e+03
3.959906e+03
3.959251e+03
3.958980e+03
3.959058e+03
3.959436e+03
3.960052e+03
3.960834e+03
3.961709e+03
3.962600e+03
3.963437e+03
3.964157e+03
3.964711e+03
3.965058e+03
4.022023e+03
4.022564e+03
4.023448e+03
4.024643e+03
4.026099e+03
4.027742e+03
4.029465e+03
4.031127e+03
4.032551e+03
4.033537e+03
4.033892e+03
4.033458e+03
4.032155e+03
4.029992e+03
4.027065e+03
4.023527e+03
4.019550e+03
4.015294e+03
4.010890e+03
4.006430e+03
4.001976e+03
3.997563e+03
3.993209e+03
3.988924e+03
3.984714e+03
3.980589e+03
3.976563e+03
3.972661e+03
3.968917e+03
3.965376e+03
3.962092e+03
3.959123e+03
3.956529e+03
3.954364e+03
3.952672e+03
3.951481e+03
3.950795e+03
3.950598e+03
3.950846e+03
3.951475e+03
3.952404e+03
3.953537e+03
3.954776e+03
3.956021e+03
3.957180e+03
3.958172e+03
3.958930e+03
3.959404e+03
4.019581e+03
4.019996e+03
4.020668e+03
4.021565e+03
4.022638e+03
4.023819e+03
4.025015e+03
4.026113e+03
4.026977e+03
4.027466e+03
4.027443e+03
4.026804e+03
4.025491e+03
4.023503e+03
4.020893e+03
4.017753e+03
4.014192e+03
4.010318e+03
4.006222e+03
4.001976e+03
3.997630e+03
3.993216e+03
3.988754e+03
3.984258e+03
3.979739e+03
3.975216e+03
3.970715e+03
3.966274e+03
3.961945e+03
3.957795e+03
3.953904e+03
3.950358e+03
3.947247e+03
3.944655e+03
3.942651e+03
3.941281e+03
3.940559e+03
3.940467e+03
3.940952e+03
3.941928e+03
3.943285e+03
3.944896e+03
3.946629e+03
3.948351e+03
3.949942e+03
3.951294e+03
3.952323e+03
3.952966e+03
4.017222e+03
4.017529e+03
4.018021e+03
4.018669e+03
4.019428e+03
4.020237e+03
4.021021e+03
4.021686e+03
4.022131e+03
4.022251e+03
4.021947e+03
4.021145e+03
4.019800e+03
4.017902e+03
4.015479e+03
4.012583e+03
4.009279e+03
4.005636e+03
4.001714e+03
3.997563e+03
3.993216e+03
3.988698e+03
3.984024e+03
3.979206e+03
3.974259e+03
3.969205e+03
3.964079e+03
3.958934e+03
3.953840e+03
3.948890e+03
3.944195e+03
3.939881e+03
3.936079e+03
3.932912e+03
3.930487e+03
3.928877e+03
3.928112e+03
3.928172e+03
3.928988e+03
3.930444e+03
3.932389e+03
3.934653e+03
3.937055e+03
3.939419e+03
3.941587e+03
3.943419e+03
3.944808e+03
3.945673e+03
4.014983e+03
4.015200e+03
4.015544e+03
4.015988e+03
4.016492e+03
4.017006e+03
4.017465e+03
4.017798e+03
4.017923e+03
4.017762e+03
4.017241e+03
4.016302e+03
4.014906e+03
4.013040e+03
4.010711e+03
4.007945e+03
4.004776e+03
4.001242e+03
3.997377e+03
3.993209e+03
3.988754e+03
3.984024e+03
3.979025e+03
3.973762e+03
3.968247e+03
3.962503e+03
3.956571e+03
3.950515e+03
3.944425e+03
3.938426e+03
3.932669e+03
3.927329e+03
3.922594e+03
3.918648e+03
3.915651e+03
3.913717e+03
3.912899e+03
3.913177e+03
3.914458e+03
3.916581e+03
3.919340e+03
3.922496e+03
3.925805e+03
3.929034e+03
3.931971e+03
3.934440e+03
3.936303e+03
3.937460e+03
4.012891e+03
4.013034e+03
4.013257e+03
4.013535e+03
4.013835e+03
4.014115e+03
4.014320e+03
4.014394e+03
4.014272e+03
4.013892e+03
4.013196e+03
4.012135e+03
4.010676e+03
4.008798e+03
4.006495e+03
4.003773e+03
4.000644e+03
3.997119e+03
3.993211e+03
3.988924e+03
3.984258e+03
3.979206e+03
3.973762e+03
3.967919e+03
3.961679e+03
3.955060e+03
3.948103e+03
3.940880e+03
3.933505e+03
3.926133e+03
3.918968e+03
3.912253e+03
3.906254e+03
3.901242e+03
3.897458e+03
3.895080e+03
3.894196e+03
3.894788e+03
3.896725e+03
3.899784e+03
3.903670e+03
3.908051e+03
3.912593e+03
3.916983e+03
3.920945e+03
3.924254e+03
3.926737e+03
3.928275e+03
4.010961e+03
4.011044e+03
4.011169e+03
4.011314e+03
4.011452e+03
4.011545e+03
4.011552e+03
4.011422e+03
4.011105e+03
4.010550e+03
4.009708e+03
4.008537e+03
4.007003e+03
4.005081e+03
4.002754e+03
4.000011e+03
3.996846e+03
3.993249e+03
3.989211e+03
3.984714e+03
3.979739e+03
3.974259e+03
3.968247e+03
3.961679e+03
3.954539e+03
3.946832e+03
3.938592e+03
3.929894e+03
3.920866e+03
3.911704e+03
3.902674e+03
3.894105e+03
3.886381e+03
3.879896e+03
3.875015e+03
3.872019e+03
3.871052e+03
3.872098e+03
3.874972e+03
3.879350e+03
3.884807e+03
3.890876e+03
3.897094e+03
3.903040e+03
3.908360e+03
3.912770e+03
3.916062e+03
3.918091e+03
4.009201e+03
4.009236e+03
4.009282e+03
4.009321e+03
4.009329e+03
4.009275e+03
4.009123e+03
4.008832e+03
4.008359e+03
4.007660e+03
4.006693e+03
4.005418e+03
4.003801e+03
4.001811e+03
3.999422e+03
3.996610e+03
3.993349e+03
3.989615e+03
3.985374e+03
3.980589e+03
3.975216e+03
3.969205e+03
3.962503e+03
3.955060e+03
3.946832e+03
3.937801e+03
3.927978e+03
3.917430e+03
3.906296e+03
3.894806e+03
3.883300e+03
3.872226e+03
3.862125e+03
3.853583e+03
3.847155e+03
3.843282e+03
3.842206e+03
3.843916e+03
3.848140e+03
3.854395e+03
3.862057e+03
3.870456e+03
3.878951e+03
3.886979e+03
3.894087e+03
3.899928e+03
3.904258e+03
3.906916e+03
4.007611e+03
4.007607e+03
4.007589e+03
4.007544e+03
4.007449e+03
4.007278e+03
4.006999e+03
4.006579e+03
4.005979e+03
4.005160e+03
4.004083e+03
4.002710e+03
4.001004e+03
3.998929e+03
3.996450e+03
3.993530e+03
3.990130e+03
3.986205e+03
3.981703e+03
3.976563e+03
3.970715e+03
3.964079e+03
3.956571e+03
3.948103e+03
3.938592e+03
3.927978e+03
3.916235e+03
3.903398e+03
3.889600e+03
3.875097e+03
3.860310e+03
3.845836e+03
3.832439e+03
3.820987e+03
3.812341e+03
3.807207e+03
3.805984e+03
3.808675e+03
3.814867e+03
3.823817e+03
3.834591e+03
3.846216e+03
3.857797e+03
3.868592e+03
3.878033e+03
3.885712e+03
3.891360e+03
3.894807e+03
4.006185e+03
4.006150e+03
4.006083e+03
4.005970e+03
4.005793e+03
4.005528e+03
4.005148e+03
4.004622e+03
4.003917e+03
4.002996e+03
4.001821e+03
4.000354e+03
3.998555e+03
3.996384e+03
3.993795e+03
3.990742e+03
3.987170e+03
3.983016e+03
3.978208e+03
3.972661e+03
3.966274e+03
3.958934e+03
3.950515e+03
3.940880e+03
3.929894e+03
3.917430e+03
3.903398e+03
3.887775e+03
3.870647e+03
3.852275e+03
3.833152e+03
3.814055e+03
3.796055e+03
3.780444e+03
3.768571e+03
3.761583e+03
3.760157e+03
3.764318e+03
3.773413e+03
3.786272e+03
3.801463e+03