# vtk DataFile Version 2.0
Simplicial Mesh Example
ASCII
DATASET UNSTRUCTURED_GRID
POINTS 2500 double
0.000000e+00 0.000000e+00 0.0
6.000000e+03 0.000000e+00 0.0
6.000000e+03 6.000000e+03 0.0
0.000000e+00 6.000000e+03 0.0
1.224490e+02 6.000000e+03 0.0
2.448980e+02 6.000000e+03 0.0
3.673469e+02 6.000000e+03 0.0
4.897959e+02 6.000000e+03 0.0
6.122449e+02 6.000000e+03 0.0
7.346939e+02 6.000000e+03 0.0
8.571429e+02 6.000000e+03 0.0
9.795918e+02 6.000000e+03 0.0
1.102041e+03 6.000000e+03 0.0
1.224490e+03 6.000000e+03 0.0
1.346939e+03 6.000000e+03 0.0
1.469388e+03 6.000000e+03 0.0
1.591837e+03 6.000000e+03 0.0
1.714286e+03 6.000000e+03 0.0
1.836735e+03 6.000000e+03 0.0
1.959184e+03 6.000000e+03 0.0
2.081633e+03 6.000000e+03 0.0
2.204082e+03 6.000000e+03 0.0
2.326531e+03 6.000000e+03 0.0
2.448980e+03 6.000000e+03 0.0
2.571429e+03 6.000000e+03 0.0
2.693878e+03 6.000000e+03 0.0
2.816327e+03 6.000000e+03 0.0
2.938776e+03 6.000000e+03 0.0
3.061224e+03 6.000000e+03 0.0
3.183673e+03 6.000000e+03 0.0
3.306122e+03 6.000000e+03 0.0
3.428571e+03 6.000000e+03 0.0
3.551020e+03 6.000000e+03 0.0
3.673469e+03 6.000000e+03 0.0
3.795918e+03 6.000000e+03 0.0
3.918367e+03 6.000000e+03 0.0
4.040816e+03 6.000000e+03 0.0
4.163265e+03 6.000000e+03 0.0
4.285714e+03 6.000000e+03 0.0
4.408163e+03 6.000000e+03 0.0
4.530612e+03 6.000000e+03 0.0
4.653061e+03 6.000000e+03 0.0
4.775510e+03 6.000000e+03 0.0
4.897959e+03 6.000000e+03 0.0
5.020408e+03 6.000000e+03 0.0
5.142857e+03 6.000000e+03 0.0
5.265306e+03 6.000000e+03 0.0
5.387755e+03 6.000000e+03 0.0
5.510204e+03 6.000000e+03 0.0
5.632653e+03 6.000000e+03 0.0
5.755102e+03 6.000000e+03 0.0
5.877551e+03 6.000000e+03 0.0
6.000000e+03 5.877551e+03 0.0
6.000000e+03 5.755102e+03 0.0
6.000000e+03 5.632653e+03 0.0
6.000000e+03 5.510204e+03 0.0
6.000000e+03 5.387755e+03 0.0
6.000000e+03 5.265306e+03 0.0
6.000000e+03 5.142857e+03 0.0
6.000000e+03 5.020408e+03 0.0
6.000000e+03 4.897959e+03 0.0
6.000000e+03 4.775510e+03 0.0
6.000000e+03 4.653061e+03 0.0
6.000000e+03 4.530612e+03 0.0
6.000000e+03 4.408163e+03 0.0
6.000000e+03 4.285714e+03 0.0
6.000000e+03 4.163265e+03 0.0
6.000000e+03 4.040816e+03 0.0
6.000000e+03 3.918367e+03 0.0
6.000000e+03 3.795918e+03 0.0
6.000000e+03 3.673469e+03 0.0
6.000000e+03 3.551020e+03 0.0
6.000000e+03 3.428571e+03 0.0
6.000000e+03 3.306122e+03 0.0
6.000000e+03 3.183673e+03 0.0
6.000000e+03 3.061224e+03 0.0
6.000000e+03 2.938776e+03 0.0
6.000000e+03 2.816327e+03 0.0
6.000000e+03 2.693878e+03 0.0
6.000000e+03 2.571429e+03 0.0
6.000000e+03 2.448980e+03 0.0
6.000000e+03 2.326531e+03 0.0
6.000000e+03 2.204082e+03 0.0
6.000000e+03 2.081633e+03 0.0
6.000000e+03 1.959184e+03 0.0
6.000000e+03 1.836735e+03 0.0
6.000000e+03 1.714286e+03 0.0
6.000000e+03 1.591837e+03 0.0
6.000000e+03 1.469388e+03 0.0
6.000000e+03 1.346939e+03 0.0
6.000000e+03 1.224490e+03 0.0
6.000000e+03 1.102041e+03 0.0
6.000000e+03 9.795918e+02 0.0
6.000000e+03 8.571429e+02 0.0
6.000000e+03 7.346939e+02 0.0
6.000000e+03 6.122449e+02 0.0
6.000000e+03 4.897959e+02 0.0
6.000000e+03 3.673469e+02 0.0
6.000000e+03 2.448980e+02 0.0
6.000000e+03 1.224490e+02 0.0
5.877551e+03 0.000000e+00 0.0
5.755102e+03 0.000000e+00 0.0
5.632653e+03 0.000000e+00 0.0
5.510204e+03 0.000000e+00 0.0
5.387755e+03 0.000000e+00 0.0
5.265306e+03 0.000000e+00 0.0
5.142857e+03 0.000000e+00 0.0
5.020408e+03 0.000000e+00 0.0
4.897959e+03 0.000000e+00 0.0
4.775510e+03 0.000000e+00 0.0
4.653061e+03 0.000000e+00 0.0
4.530612e+03 0.000000e+00 0.0
4.408163e+03 0.000000e+00 0.0
4.285714e+03 0.000000e+00 0.0
4.163265e+03 0.000000e+00 0.0
4.040816e+03 0.000000e+00 0.0
3.918367e+03 0.000000e+00 0.0
3.795918e+03 0.000000e+00 0.0
3.673469e+03 0.000000e+00 0.0
3.551020e+03 0.000000e+00 0.0
3.428571e+03 0.000000e+00 0.0
3.306122e+03 0.000000e+00 0.0
3.183673e+03 0.000000e+00 0.0
3.061224e+03 0.000000e+00 0.0
2.938776e+03 0.000000e+00 0.0
2.816327e+03 0.000000e+00 0.0
2.693878e+03 0.000000e+00 0.0
2.571429e+03 0.000000e+00 0.0
2.448980e+03 0.000000e+00 0.0
2.326531e+03 0.000000e+00 0.0
2.204082e+03 0.000000e+00 0.0
2.081633e+03 0.000000e+00 0.0
1.959184e+03 0.000000e+00 0.0
1.836735e+03 0.000000e+00 0.0
1.714286e+03 0.000000e+00 0.0
1.591837e+03 0.000000e+00 0.0
1.469388e+03 0.000000e+00 0.0
1.346939e+03 0.000000e+00 0.0
1.224490e+03 0.000000e+00 0.0
1.102041e+03 0.000000e+00 0.0
9.795918e+02 0.000000e+00 0.0
8.571429e+02 0.000000e+00 0.0
7.346939e+02 0.000000e+00 0.0
6.122449e+02 0.000000e+00 0.0
4.897959e+02 0.000000e+00 0.0
3.673469e+02 0.000000e+00 0.0
2.448980e+02 0.000000e+00 0.0
1.224490e+02 0.000000e+00 0.0
0.000000e+00 1.224490e+02 0.0
0.000000e+00 2.448980e+02 0.0
0.000000e+00 3.673469e+02 0.0
0.000000e+00 4.897959e+02 0.0
0.000000e+00 6.122449e+02 0.0
0.000000e+00 7.346939e+02 0.0
0.000000e+00 8.571429e+02 0.0
0.000000e+00 9.795918e+02 0.0
0.000000e+00 1.102041e+03 0.0
0.000000e+00 1.224490e+03 0.0
0.000000e+00 1.346939e+03 0.0
0.000000e+00 1.469388e+03 0.0
0.000000e+00 1.591837e+03 0.0
0.000000e+00 1.714286e+03 0.0
0.000000e+00 1.836735e+03 0.0
0.000000e+00 1.959184e+03 0.0
0.000000e+00 2.081633e+03 0.0
0.000000e+00 2.204082e+03 0.0
0.000000e+00 2.326531e+03 0.0
0.000000e+00 2.448980e+03 0.0
0.000000e+00 2.571429e+03 0.0
0.000000e+00 2.693878e+03 0.0
0.000000e+00 2.816327e+03 0.0
0.000000e+00 2.938776e+03 0.0
0.000000e+00 3.061224e+03 0.0
0.000000e+00 3.183673e+03 0.0
0.000000e+00 3.306122e+03 0.0
0.000000e+00 3.428571e+03 0.0
0.000000e+00 3.551020e+03 0.0
0.000000e+00 3.673469e+03 0.0
0.000000e+00 3.795918e+03 0.0
0.000000e+00 3.918367e+03 0.0
0.000000e+00 4.040816e+03 0.0
0.000000e+00 4.163265e+03 0.0
0.000000e+00 4.285714e+03 0.0
0.000000e+00 4.408163e+03 0.0
0.000000e+00 4.530612e+03 0.0
0.000000e+00 4.653061e+03 0.0
0.000000e+00 4.775510e+03 0.0
0.000000e+00 4.897959e+03 0.0
0.000000e+00 5.020408e+03 0.0
0.000000e+00 5.142857e+03 0.0
0.000000e+00 5.265306e+03 0.0
0.000000e+00 5.387755e+03 0.0
0.000000e+00 5.510204e+03 0.0
0.000000e+00 5.632653e+03 0.0
0.000000e+00 5.755102e+03 0.0
0.000000e+00 5.877551e+03 0.0
1.224490e+02 1.224490e+02 0.0
1.224490e+02 2.448980e+02 0.0
1.224490e+02 3.673469e+02 0.0
1.224490e+02 4.897959e+02 0.0
1.224490e+02 6.122449e+02 0.0
1.224490e+02 7.346939e+02 0.0
1.224490e+02 8.571429e+02 0.0
1.224490e+02 9.795918e+02 0.0
1.224490e+02 1.102041e+03 0.0
1.224490e+02 1.224490e+03 0.0
1.224490e+02 1.346939e+03 0.0
1.224490e+02 1.469388e+03 0.0
1.224490e+02 1.591837e+03 0.0
1.224490e+02 1.714286e+03 0.0
1.224490e+02 1.836735e+03 0.0
1.224490e+02 1.959184e+03 0.0
1.224490e+02 2.081633e+03 0.0
1.224490e+02 2.204082e+03 0.0
1.224490e+02 2.326531e+03 0.0
1.224490e+02 2.448980e+03 0.0
1.224490e+02 2.571429e+03 0.0
1.224490e+02 2.693878e+03 0.0
1.224490e+02 2.816327e+03 0.0
1.224490e+02 2.938776e+03 0.0
1.224490e+02 3.061224e+03 0.0
1.224490e+02 3.183673e+03 0.0
1.224490e+02 3.306122e+03 0.0
1.224490e+02 3.428571e+03 0.0
1.224490e+02 3.551020e+03 0.0
1.224490e+02 3.673469e+03 0.0
1.224490e+02 3.795918e+03 0.0
1.224490e+02 3.918367e+03 0.0
1.224490e+02 4.040816e+03 0.0
1.224490e+02 4.163265e+03 0.0
1.224490e+02 4.285714e+03 0.0
1.224490e+02 4.408163e+03 0.0
1.224490e+02 4.530612e+03 0.0
1.224490e+02 4.653061e+03 0.0
1.224490e+02 4.775510e+03 0.0
1.224490e+02 4.897959e+03 0.0
1.224490e+02 5.020408e+03 0.0
1.224490e+02 5.142857e+03 0.0
1.224490e+02 5.265306e+03 0.0
1.224490e+02 5.387755e+03 0.0
1.224490e+02 5.510204e+03 0.0
1.224490e+02 5.632653e+03 0.0
1.224490e+02 5.755102e+03 0.0
1.224490e+02 5.877551e+03 0.0
2.448980e+02 1.224490e+02 0.0
2.448980e+02 2.448980e+02 0.0
2.448980e+02 3.673469e+02 0.0
2.448980e+02 4.897959e+02 0.0
2.448980e+02 6.122449e+02 0.0
2.448980e+02 7.346939e+02 0.0
2.448980e+02 8.571429e+02 0.0
2.448980e+02 9.795918e+02 0.0
2.448980e+02 1.102041e+03 0.0
2.448980e+02 1.224490e+03 0.0
2.448980e+02 1.346939e+03 0.0
2.448980e+02 1.469388e+03 0.0
2.448980e+02 1.591837e+03 0.0
2.448980e+02 1.714286e+03 0.0
2.448980e+02 1.836735e+03 0.0
2.448980e+02 1.959184e+03 0.0
2.448980e+02 2.081633e+03 0.0
2.448980e+02 2.204082e+03 0.0
2.448980e+02 2.326531e+03 0.0
2.448980e+02 2.448980e+03 0.0
2.448980e+02 2.571429e+03 0.0
2.448980e+02 2.693878e+03 0.0
2.448980e+02 2.816327e+03 0.0
2.448980e+02 2.938776e+03 0.0
2.448980e+02 3.061224e+03 0.0
2.448980e+02 3.183673e+03 0.0
2.448980e+02 3.306122e+03 0.0
2.448980e+02 3.428571e+03 0.0
2.448980e+02 3.551020e+03 0.0
2.448980e+02 3.673469e+03 0.0
2.448980e+02 3.795918e+03 0.0
2.448980e+02 3.918367e+03 0.0
2.448980e+02 4.040816e+03 0.0
2.448980e+02 4.163265e+03 0.0
2.448980e+02 4.285714e+03 0.0
2.448980e+02 4.408163e+03 0.0
2.448980e+02 4.530612e+03 0.0
2.448980e+02 4.653061e+03 0.0
2.448980e+02 4.775510e+03 0.0
2.448980e+02 4.897959e+03 0.0
2.448980e+02 5.020408e+03 0.0
2.448980e+02 5.142857e+03 0.0
2.448980e+02 5.265306e+03 0.0
2.448980e+02 5.387755e+03 0.0
2.448980e+02 5.510204e+03 0.0
2.448980e+02 5.632653e+03 0.0
2.448980e+02 5.755102e+03 0.0
2.448980e+02 5.877551e+03 0.0
3.673469e+02 1.224490e+02 0.0
3.673469e+02 2.448980e+02 0.0
3.673469e+02 3.673469e+02 0.0
3.673469e+02 4.897959e+02 0.0
3.673469e+02 6.122449e+02 0.0
3.673469e+02 7.346939e+02 0.0
3.673469e+02 8.571429e+02 0.0
3.673469e+02 9.795918e+02 0.0
3.673469e+02 1.102041e+03 0.0
3.673469e+02 1.224490e+03 0.0
3.673469e+02 1.346939e+03 0.0
3.673469e+02 1.469388e+03 0.0
3.673469e+02 1.591837e+03 0.0
3.673469e+02 1.714286e+03 0.0
3.673469e+02 1.836735e+03 0.0
3.673469e+02 1.959184e+03 0.0
3.673469e+02 2.081633e+03 0.0
3.673469e+02 2.204082e+03 0.0
3.673469e+02 2.326531e+03 0.0
3.673469e+02 2.448980e+03 0.0
3.673469e+02 2.571429e+03 0.0
3.673469e+02 2.693878e+03 0.0
3.673469e+02 2.816327e+03 0.0
3.673469e+02 2.938776e+03 0.0
3.673469e+02 3.061224e+03 0.0
3.673469e+02 3.183673e+03 0.0
3.673469e+02 3.306122e+03 0.0
3.673469e+02 3.428571e+03 0.0
3.673469e+02 3.551020e+03 0.0
3.673469e+02 3.673469e+03 0.0
3.673469e+02 3.795918e+03 0.0
3.673469e+02 3.918367e+03 0.0
3.673469e+02 4.040816e+03 0.0
3.673469e+02 4.163265e+03 0.0
3.673469e+02 4.285714e+03 0.0
3.673469e+02 4.408163e+03 0.0
3.673469e+02 4.530612e+03 0.0
[...]
POINT_DATA 2500
SCALARS Pressure double 1
LOOKUP_TABLE default
4.102276e+03
3.973845e+03
3.387519e+03
3.973845e+03
3.973604e+03
3.972880e+03
3.971663e+03
3.969941e+03
3.967696e+03
3.964902e+03
3.961529e+03
3.957539e+03
3.952887e+03
3.947522e+03
3.941382e+03
3.934398e+03
3.926488e+03
3.917561e+03
3.907515e+03
3.896234e+03
3.883589e+03
3.869438e+03
3.853630e+03
3.835998e+03
3.816372e+03
3.794579e+03
3.770452e+03
3.743847e+03
3.714654e+03
3.682828e+03
3.648414e+03
3.611589e+03
3.572704e+03
3.532324e+03
3.491260e+03
3.450588e+03
3.411615e+03
3.375812e+03
3.344658e+03
3.319357e+03
3.300731e+03
3.289175e+03
3.284635e+03
3.286622e+03
3.294245e+03
3.306277e+03
3.321232e+03
3.337481e+03
3.353367e+03
3.367372e+03
3.378267e+03
3.385162e+03
3.385162e+03
3.378267e+03
3.367372e+03
3.353367e+03
3.337481e+03
3.321232e+03
3.306277e+03
3.294245e+03
3.286622e+03
3.284635e+03
3.289175e+03
3.300731e+03
3.319357e+03
3.344658e+03
3.375812e+03
3.411615e+03
3.450588e+03
3.491260e+03
3.532324e+03
3.572704e+03
3.611589e+03
3.648414e+03
3.682828e+03
3.714654e+03
3.743847e+03
3.770452e+03
3.794579e+03
3.816372e+03
3.835998e+03
3.853630e+03
3.869438e+03
3.883589e+03
3.896234e+03
3.907515e+03
3.917561e+03
3.926488e+03
3.934398e+03
3.941382e+03
3.947522e+03
3.952887e+03
3.957539e+03
3.961529e+03
3.964902e+03
3.967696e+03
3.969941e+03
3.971663e+03
3.972880e+03
3.973604e+03
3.973905e+03
3.974084e+03
3.974387e+03
3.974817e+03
3.975379e+03
3.976082e+03
3.976934e+03
3.977946e+03
3.979128e+03
3.980492e+03
3.982052e+03
3.983821e+03
3.985814e+03
3.988043e+03
3.990523e+03
3.993267e+03
3.996289e+03
3.999599e+03
4.003206e+03
4.007119e+03
4.011340e+03
4.015869e+03
4.020702e+03
4.025825e+03
4.031219e+03
4.036854e+03
4.042689e+03
4.048672e+03
4.054735e+03
4.060798e+03
4.066768e+03
4.072541e+03
4.078009e+03
4.083066e+03
4.087615e+03
4.091581e+03
4.094915e+03
4.097601e+03
4.099657e+03
4.101133e+03
4.102102e+03
4.102656e+03
4.102891e+03
4.102904e+03
4.102785e+03
4.102609e+03
4.102439e+03
4.102319e+03
4.102319e+03
4.102439e+03
4.102609e+03
4.102785e+03
4.102904e+03
4.102891e+03
4.102656e+03
4.102102e+03
4.101133e+03
4.099657e+03
4.097601e+03
4.094915e+03
4.091581e+03
4.087615e+03
4.083066e+03
4.078009e+03
4.072541e+03
4.066768e+03
4.060798e+03
4.054735e+03
4.048672e+03
4.042689e+03
4.036854e+03
4.031219e+03
4.025825e+03
4.020702e+03
4.015869e+03
4.011340e+03
4.007119e+03
4.003206e+03
3.999599e+03
3.996289e+03
3.993267e+03
3.990523e+03
3.988043e+03
3.985814e+03
3.983821e+03
3.982052e+03
3.980492e+03
3.979128e+03
3.977946e+03
3.976934e+03
3.976082e+03
3.975379e+03
3.974817e+03
3.974387e+03
3.974084e+03
3.973905e+03
4.102366e+03
4.102499e+03
4.102690e+03
4.102895e+03
4.103052e+03
4.103082e+03
4.102894e+03
4.102389e+03
4.101464e+03
4.100026e+03
4.097994e+03
4.095316e+03
4.091973e+03
4.087981e+03
4.083391e+03
4.078284e+03
4.072759e+03
4.066927e+03
4.060901e+03
4.054785e+03
4.048675e+03
4.042651e+03
4.036781e+03
4.031117e+03
4.025698e+03
4.020554e+03
4.015704e+03
4.011160e+03
4.006927e+03
4.003004e+03
3.999388e+03
3.996072e+03
3.993044e+03
3.990295e+03
3.987811e+03
3.985578e+03
3.983584e+03
3.981813e+03
3.980251e+03
3.978886e+03
3.977704e+03
3.976692e+03
3.975840e+03
3.975138e+03
3.974575e+03
3.974146e+03
3.973843e+03
3.973664e+03
4.102499e+03
4.102670e+03
4.102926e+03
4.103220e+03
4.103489e+03
4.103650e+03
4.103608e+03
4.103251e+03
4.102466e+03
4.101142e+03
4.099187e+03
4.096537e+03
4.093166e+03
4.089093e+03
4.084378e+03
4.079112e+03
4.073413e+03
4.067402e+03
4.061203e+03
4.054929e+03
4.048678e+03
4.042532e+03
4.036557e+03
4.030804e+03
4.025312e+03
4.020106e+03
4.015205e+03
4.010618e+03
4.006349e+03
4.002396e+03
3.998755e+03
3.995417e+03
3.992371e+03
3.989607e+03
3.987111e+03
3.984870e+03
3.982868e+03
3.981091e+03
3.979526e+03
3.978158e+03
3.976975e+03
3.975963e+03
3.975111e+03
3.974409e+03
3.973848e+03
3.973420e+03
3.973118e+03
3.972939e+03
4.102690e+03
4.102926e+03
4.103288e+03
4.103732e+03
4.104192e+03
4.104580e+03
4.104790e+03
4.104695e+03
4.104159e+03
4.103044e+03
4.101230e+03
4.098631e+03
4.095212e+03
4.090995e+03
4.086055e+03
4.080511e+03
4.074504e+03
4.068184e+03
4.061690e+03
4.055147e+03
4.048659e+03
4.042310e+03
4.036162e+03
4.030265e+03
4.024651e+03
4.019345e+03
4.014359e+03
4.009702e+03
4.005373e+03
4.001371e+03
3.997687e+03
3.994314e+03
3.991240e+03
3.988452e+03
3.985936e+03
3.983678e+03
3.981664e+03
3.979879e+03
3.978307e+03
3.976936e+03
3.975750e+03
3.974738e+03
3.973887e+03
3.973187e+03
3.972627e+03
3.972200e+03
3.971900e+03
3.971722e+03
4.102895e+03
4.103220e+03
4.103732e+03
4.104388e+03
4.105121e+03
4.105840e+03
4.106425e+03
4.106729e+03
4.106579e+03
4.105794e+03
4.104209e+03
4.101698e+03
4.098207e+03
4.093765e+03
4.088476e+03
4.082502e+03
4.076032e+03
4.069252e+03
4.062329e+03
4.055403e+03
4.048582e+03
4.041949e+03
4.035564e+03
4.029468e+03
4.023690e+03
4.018246e+03
4.013146e+03
4.008392e+03
4.003983e+03
3.999912e+03
3.996171e+03
3.992749e+03
3.989634e+03
3.986812e+03
3.984268e+03
3.981988e+03
3.979957e+03
3.978159e+03
3.976580e+03
3.975203e+03
3.974015e+03
3.973003e+03
3.972153e+03
3.971455e+03
3.970898e+03
3.970474e+03
3.970177e+03
3.970000e+03
4.103052e+03
4.103489e+03
4.104192e+03
4.105121e+03
4.106214e+03
4.107378e+03
4.108483e+03
4.109355e+03
4.109774e+03
4.109492e+03
4.108263e+03
4.105897e+03
4.102304e+03
4.097524e+03
4.091716e+03
4.085115e+03
4.077985e+03
4.070569e+03
4.063069e+03
4.055639e+03
4.048390e+03
4.041399e+03
4.034717e+03
4.028375e+03
4.022393e+03
4.016779e+03
4.011537e+03
4.006664e+03
4.002153e+03
3.997997e+03
3.994182e+03
3.990699e+03
3.987531e+03
3.984666e+03
3.982087e+03
3.979779e+03
3.977726e+03
3.975912e+03
3.974322e+03
3.972939e+03
3.971749e+03
3.970737e+03
3.969890e+03
3.969195e+03
3.968643e+03
3.968223e+03
3.967928e+03
3.967754e+03
4.103082e+03
4.103650e+03
4.104580e+03
4.105840e+03
4.107378e+03
4.109110e+03
4.110903e+03
4.112559e+03
4.113801e+03
4.114275e+03
4.113606e+03
4.111480e+03
4.107743e+03
4.102456e+03
4.095875e+03
4.088372e+03
4.080328e+03
4.072066e+03
4.063827e+03
4.055773e+03
4.048007e+03
4.040592e+03
4.033561e+03
4.026933e+03
4.020715e+03
4.014904e+03
4.009497e+03
4.004484e+03
3.999854e+03
3.995595e+03
3.991693e+03
3.988134e+03
3.984903e+03
3.981985e+03
3.979362e+03
3.977020e+03
3.974940e+03
3.973108e+03
3.971505e+03
3.970115e+03
3.968923e+03
3.967912e+03
3.967069e+03
3.966381e+03
3.965834e+03
3.965420e+03
3.965130e+03
3.964959e+03
4.102894e+03
4.103608e+03
4.104790e+03
4.106425e+03
4.108483e+03
4.110903e+03
4.113571e+03
4.116285e+03
4.118704e+03
4.120332e+03
4.120562e+03
4.118846e+03
4.114898e+03
4.108822e+03
4.101073e+03
4.092266e+03
4.082975e+03
4.073625e+03
4.064480e+03
4.055691e+03
4.047333e+03
4.039441e+03
4.032025e+03
4.025082e+03
4.018603e+03
4.012575e+03
4.006984e+03
4.001813e+03
3.997048e+03
3.992671e+03
3.988668e+03
3.985021e+03
3.981715e+03
3.978733e+03
3.976059e+03
3.973675e+03
3.971565e+03
3.969710e+03
3.968093e+03
3.966696e+03
3.965503e+03
3.964495e+03
3.963659e+03
3.962978e+03
3.962441e+03
3.962035e+03
3.961751e+03
3.961584e+03
4.102389e+03
4.103251e+03
4.104695e+03
4.106729e+03
4.109355e+03
4.112559e+03
4.116285e+03
4.120375e+03
4.124475e+03
4.127897e+03
4.129633e+03
4.128651e+03
4.124377e+03
4.117007e+03
4.107417e+03
4.096705e+03
4.085746e+03
4.075047e+03
4.064848e+03
4.055239e+03
4.046242e+03
4.037845e+03
4.030025e+03
4.022752e+03
4.016000e+03
4.009741e+03
4.003952e+03
3.998609e+03
3.993693e+03
3.989184e+03
3.985065e+03
3.981317e+03
3.977924e+03
3.974868e+03
3.972133e+03
3.969701e+03
3.967554e+03
3.965674e+03
3.964041e+03
3.962638e+03
3.961445e+03
3.960444e+03
3.959617e+03
3.958948e+03
3.958423e+03
3.958028e+03
3.957753e+03
3.957592e+03
4.101464e+03
4.102466e+03
4.104159e+03
4.106579e+03
4.109774e+03
4.113801e+03
4.118704e+03
4.124475e+03
4.130912e+03
4.137214e+03
4.141626e+03
4.142051e+03
4.137237e+03
4.127557e+03
4.114892e+03
4.101386e+03
4.088289e+03
4.076030e+03
4.064689e+03
4.054234e+03
4.044593e+03
4.035695e+03
4.027474e+03
4.019872e+03
4.012843e+03
4.006347e+03
4.000349e+03
3.994823e+03
3.989742e+03
3.985086e+03
3.980836e+03
3.976972e+03
3.973478e+03
3.970336e+03
3.967531e+03
3.965043e+03
3.962854e+03
3.960945e+03
3.959296e+03
3.957887e+03
3.956697e+03
3.955706e+03
3.954893e+03
3.954241e+03
3.953733e+03
3.953354e+03
3.953092e+03
3.952938e+03
4.100026e+03
4.101142e+03
4.103044e+03
4.105794e+03
4.109492e+03
4.114275e+03
4.120332e+03
4.127897e+03
4.137214e+03
4.148347e+03
4.157953e+03
4.161138e+03
4.155553e+03
4.141215e+03
4.122919e+03
4.105562e+03
4.090021e+03
4.076154e+03
4.063712e+03
4.052466e+03
4.042235e+03
4.032877e+03
4.024283e+03
4.016370e+03
4.009071e+03
4.002337e+03
3.996125e+03
3.990403e+03
3.985144e+03
3.980324e+03
3.975925e+03
3.971929e+03
3.968318e+03
3.965077e+03
3.962189e+03
3.959636e+03
3.957399e+03
3.955459e+03
3.953793e+03
3.952380e+03
3.951197e+03
3.950221e+03
3.949429e+03
3.948801e+03
3.948316e+03
3.947958e+03
3.947712e+03
3.947569e+03
4.097994e+03
4.099187e+03
4.101230e+03
4.104209e+03
4.108263e+03
4.113606e+03
4.120562e+03
4.129633e+03
4.141626e+03
4.157953e+03
4.185495e+03
4.185080e+03
4.188138e+03
4.156588e+03
4.129274e+03
4.107906e+03
4.090154e+03
4.074943e+03
4.061613e+03
4.049736e+03
4.039028e+03
4.029288e+03
4.020373e+03
4.012178e+03
4.004626e+03
3.997656e+03
3.991224e+03
3.985295e+03
3.979840e+03
3.974838e+03
3.970271e+03
3.966122e+03
3.962376e+03
3.959018e+03
3.956034e+03
3.953405e+03
3.951113e+03
3.949138e+03
3.947455e+03
3.946042e+03
3.944871e+03
3.943918e+03
3.943155e+03
3.942559e+03
3.942106e+03
3.941776e+03
3.941553e+03
3.941424e+03
4.095316e+03
4.096537e+03
4.098631e+03
4.101698e+03
4.105897e+03
4.111480e+03
4.118846e+03
4.128651e+03
4.142051e+03
4.161138e+03
4.185080e+03
4.383171e+03
4.229023e+03
4.161914e+03
4.130562e+03
4.106889e+03
4.087921e+03
4.071974e+03
4.058142e+03
4.045886e+03
4.034865e+03
4.024849e+03
4.015680e+03
4.007243e+03
3.999455e+03
3.992254e+03
3.985594e+03
3.979442e+03
3.973771e+03
3.968562e+03
3.963801e+03
3.959474e+03
3.955569e+03
3.952075e+03
3.948977e+03
3.946260e+03
3.943905e+03
3.941890e+03
3.940191e+03
3.938782e+03
3.937631e+03
3.936711e+03
3.935989e+03
3.935437e+03
3.935028e+03
3.934736e+03
3.934543e+03
3.934433e+03
4.091973e+03
4.093166e+03
4.095212e+03
4.098207e+03
4.102304e+03
4.107743e+03
4.114898e+03
4.124377e+03
4.137237e+03
4.155553e+03
4.188138e+03
4.229023e+03
4.203274e+03
4.155442e+03
4.124634e+03
4.101611e+03
4.082903e+03
4.067031e+03
4.053174e+03
4.040834e+03
4.029688e+03
4.019515e+03
4.010164e+03
4.001524e+03
3.993516e+03
3.986082e+03
3.979181e+03
3.972784e+03
3.966869e+03
3.961422e+03
3.956434e+03
3.951898e+03
3.947805e+03
3.944147e+03
3.940915e+03
3.938093e+03
3.935665e+03
3.933607e+03
3.931894e+03
3.930495e+03
3.929375e+03
3.928501e+03
3.927836e+03
3.927344e+03
3.926992e+03
3.926752e+03
3.926599e+03
3.926514e+03
4.087981e+03
4.089093e+03
4.090995e+03
4.093765e+03
4.097524e+03
4.102456e+03
4.108822e+03
4.117007e+03
4.127557e+03
4.141215e+03
4.156588e+03
4.161914e+03
4.155442e+03
4.134962e+03
4.112224e+03
4.092400e+03
4.075252e+03
4.060188e+03
4.046749e+03
4.034600e+03
4.023501e+03
4.013279e+03
4.003807e+03
3.994995e+03
3.986774e+03
3.979098e+03
3.971933e+03
3.965258e+03
3.959061e+03
3.953335e+03
3.948079e+03
3.943292e+03
3.938972e+03
3.935119e+03
3.931724e+03
3.928779e+03
3.926265e+03
3.924160e+03
3.922435e+03
3.921055e+03
3.919982e+03
3.919172e+03
3.918583e+03
3.918173e+03
3.917899e+03
3.917727e+03
3.917627e+03
3.917576e+03
4.083391e+03
4.084378e+03
4.086055e+03
4.088476e+03
4.091716e+03
4.095875e+03
4.101073e+03
4.107417e+03
4.114892e+03
4.122919e+03
4.129274e+03
4.130562e+03
4.124634e+03
4.112224e+03
4.096543e+03
4.080598e+03
4.065607e+03
4.051781e+03
4.039053e+03
4.027290e+03
4.016365e+03
4.006170e+03
3.996619e+03
3.987647e+03
3.979205e+03
3.971262e+03
3.963796e+03
3.956799e+03
3.950268e+03
3.944209e+03
3.938629e+03
3.933537e+03
3.928943e+03
3.924851e+03
3.921261e+03
3.918167e+03
3.915553e+03
3.913396e+03
3.911664e+03
3.910317e+03
3.909308e+03
3.908588e+03
3.908103e+03
3.907801e+03
3.907632e+03
3.907551e+03
3.907521e+03
3.907515e+03
4.078284e+03
4.079112e+03
4.080511e+03
4.082502e+03
4.085115e+03
4.088372e+03
4.092266e+03
4.096705e+03
4.101386e+03
4.105562e+03
4.107906e+03
4.106889e+03
4.101611e+03
4.092400e+03
4.080598e+03
4.067717e+03
4.054781e+03
4.042273e+03
4.030361e+03
4.019073e+03
4.008383e+03
3.998248e+03
3.988627e+03
3.979483e+03
3.970791e+03
3.962537e+03
3.954716e+03
3.947333e+03
3.940401e+03
3.933936e+03
3.927962e+03
3.922498e+03
3.917567e+03
3.913183e+03
3.909355e+03
3.906080e+03
3.903348e+03
3.901134e+03
3.899401e+03
3.898105e+03
3.897188e+03
3.896590e+03
3.896246e+03
3.896089e+03
3.896058e+03
3.896098e+03
3.896161e+03
3.896214e+03
4.072759e+03
4.073413e+03
4.074504e+03
4.076032e+03
4.077985e+03
4.080328e+03
4.082975e+03
4.085746e+03
4.088289e+03
4.090021e+03
4.090154e+03
4.087921e+03
4.082903e+03
4.075252e+03
4.065607e+03
4.054781e+03
4.043466e+03
4.032112e+03
4.020965e+03
4.010138e+03
3.999676e+03
3.989588e+03
3.979870e+03
3.970514e+03
3.961519e+03
3.952888e+03
3.944636e+03
3.936784e+03
3.929359e+03
3.922398e+03
3.915937e+03
3.910015e+03
3.904668e+03
3.899923e+03
3.895801e+03
3.892308e+03
3.889435e+03
3.887158e+03
3.885436e+03
3.884215e+03
3.883426e+03
3.882994e+03
3.882838e+03
3.882875e+03
3.883027e+03
3.883226e+03
3.883412e+03
3.883542e+03
4.066927e+03
4.067402e+03
4.068184e+03
4.069252e+03
4.070569e+03
4.072066e+03
4.073625e+03
4.075047e+03
4.076030e+03
4.076154e+03
4.074943e+03
4.071974e+03
4.067031e+03
4.060188e+03
4.051781e+03
4.042273e+03
4.032112e+03
4.021650e+03
4.011120e+03
4.000667e+03
3.990369e+03
3.980269e+03
3.970392e+03
3.960754e+03
3.951375e+03
3.942278e+03
3.933494e+03
3.925062e+03
3.917032e+03
3.909456e+03
3.902393e+03
3.895902e+03
3.890037e+03
3.884846e+03
3.880361e+03
3.876600e+03
3.873560e+03
3.871215e+03
3.869519e+03
3.868406e+03
3.867793e+03
3.867585e+03
3.867680e+03
3.867974e+03
3.868370e+03
3.868778e+03
3.869126e+03
3.869357e+03
4.060901e+03
4.061203e+03
4.061690e+03
4.062329e+03
4.063069e+03
4.063827e+03
4.064480e+03
4.064848e+03
4.064689e+03
4.063712e+03
4.061613e+03
4.058142e+03
4.053174e+03
4.046749e+03
4.039053e+03
4.030361e+03
4.020965e+03
4.011120e+03
4.001023e+03
3.990809e+03
3.980570e+03
3.970365e+03
3.960236e+03
3.950218e+03
3.940348e+03
3.930666e+03
3.921222e+03
3.912074e+03
3.903292e+03
3.894954e+03
3.887143e+03
3.879942e+03
3.873433e+03
3.867685e+03
3.862750e+03
3.858660e+03
3.855418e+03
3.853000e+03
3.851353e+03
3.850394e+03
3.850022e+03
3.850115e+03
3.850544e+03
3.851179e+03
3.851895e+03
3.852579e+03
3.853139e+03
3.853503e+03
4.054785e+03
4.054929e+03
4.055147e+03
4.055403e+03
4.055639e+03
4.055773e+03
4.055691e+03
4.055239e+03
4.054234e+03
4.052466e+03
4.049736e+03
4.045886e+03
4.040834e+03
4.034600e+03
4.027290e+03
4.019073e+03
4.010138e+03
4.000667e+03
3.990809e+03
3.980682e+03
3.970371e+03
3.959940e+03
3.949441e+03
3.938919e+03
3.928424e+03
3.918012e+03
3.907748e+03
3.897714e+03
3.888001e+03
3.878717e+03
3.869974e+03
3.861888e+03
3.854573e+03
3.848128e+03
3.842632e+03
3.838135e+03
3.834651e+03
3.832158e+03
3.830590e+03
3.829848e+03
3.829802e+03
3.830298e+03
3.831172e+03
3.832257e+03
3.833393e+03
3.834438e+03
3.835274e+03
3.835812e+03
4.048675e+03
4.048678e+03
4.048659e+03
4.048582e+03
4.048390e+03
4.048007e+03
4.047333e+03
4.046242e+03
4.044593e+03
4.042235e+03
4.039028e+03
4.034865e+03
4.029688e+03
4.023501e+03
4.016365e+03
4.008383e+03
3.999676e+03
3.990369e+03
3.980570e+03
3.970371e+03
3.959845e+03
3.949051e+03
3.938042e+03
3.926870e+03
3.915590e+03
3.904271e+03
3.892997e+03
3.881869e+03
3.871007e+03
3.860549e+03
3.850646e+03
3.841454e+03
3.833129e+03
3.825810e+03
3.819612e+03
3.814611e+03
3.810836e+03
3.808265e+03
3.806821e+03
3.806380e+03
3.806775e+03
3.807809e+03
3.809271e+03
3.810948e+03
3.812635e+03
3.814151e+03
3.815346e+03
3.816110e+03
4.042651e+03
4.042532e+03
4.042310e+03
4.041949e+03
4.041399e+03
4.040592e+03
4.039441e+03
4.037845e+03
4.035695e+03
4.032877e+03
4.029288e+03
4.024849e+03
4.019515e+03
4.013279e+03
4.006170e+03
3.998248e+03
3.989588e+03
3.980269e+03
3.970365e+03
3.959940e+03
3.949051e+03
3.937747e+03
3.926073e+03
3.914082e+03
3.901834e+03
3.889405e+03
3.876895e+03
3.864426e+03
3.852149e+03
3.840238e+03
3.828891e+03
3.818317e+03
3.808725e+03
3.800308e+03
3.793229e+03
3.787601e+03
3.783474e+03
3.780828e+03
3.779571e+03
3.779544e+03
3.780532e+03
3.782281e+03
3.784519e+03
3.786971e+03
3.789375e+03
3.791502e+03
3.793163e+03
3.794217e+03
4.036781e+03
4.036557e+03
4.036162e+03
4.035564e+03
4.034717e+03
4.033561e+03
4.032025e+03
4.030025e+03
4.027474e+03
4.024283e+03
4.020373e+03
4.015680e+03
4.010164e+03
4.003807e+03
3.996619e+03
3.988627e+03
3.979870e+03
3.970392e+03
3.960236e+03
3.949441e+03
3.938042e+03
3.926073e+03
3.913570e+03
3.900577e+03
3.887154e+03
3.873382e+03
3.859373e+03
3.845272e+03
3.831260e+03
3.817558e+03
3.804419e+03
3.792117e+03
3.780934e+03
3.771136e+03
3.762950e+03
3.756540e+03
3.751987e+03
3.749275e+03
3.748291e+03
3.748830e+03
3.750613e+03
3.753310e+03
3.756566e+03
3.760028e+03
3.763363e+03
3.766279e+03
3.768538e+03
3.769965e+03
4.031117e+03
4.030804e+03
4.030265e+03
4.029468e+03
4.028375e+03
4.026933e+03
4.025082e+03
4.022752e+03
4.019872e+03
4.016370e+03
4.012178e+03
4.007243e+03
4.001524e+03
3.994995e+03
3.987647e+03
3.979483e+03
3.970514e+03
3.960754e+03
3.950218e+03
3.938919e+03
3.926870e+03
3.914082e+03
3.900577e+03
3.886387e+03
3.871563e+03
3.856188e+03
3.840382e+03
3.824308e+03
3.808185e+03
3.792284e+03
3.776925e+03
3.762467e+03
3.749286e+03
3.737746e+03
3.728165e+03
3.720778e+03
3.715709e+03
3.712951e+03
3.712360e+03
3.713670e+03
3.716515e+03
3.720461e+03
3.725048e+03
3.729819e+03
3.734351e+03
3.738276e+03
3.741298e+03
3.743199e+03
4.025698e+03
4.025312e+03
4.024651e+03
4.023690e+03
4.022393e+03
4.020715e+03
4.018603e+03
4.016000e+03
4.012843e+03
4.009071e+03
4.004626e+03
3.999455e+03
3.993516e+03
3.986774e+03
3.979205e+03
3.970791e+03
3.961519e+03
3.951375e+03
3.940348e+03
3.928424e+03
3.915590e+03
3.901834e+03
3.887154e+03
3.871563e+03
3.855100e+03
3.837838e+03
3.819899e+03
3.801466e+03
3.782791e+03
3.764203e+03
3.746104e+03
3.728960e+03
3.713271e+03
3.699534e+03
3.688191e+03
3.679582e+03
3.673891e+03
3.671122e+03
3.671094e+03
3.673450e+03
3.677706e+03
3.683292e+03
3.689605e+03
3.696060e+03
3.702119e+03
3.707324e+03
3.711307e+03
3.713804e+03
4.020554e+03
4.020106e+03
4.019345e+03
4.018246e+03
4.016779e+03
4.014904e+03
4.012575e+03
4.009741e+03
4.006347e+03
4.002337e+03
3.997656e+03
3.992254e+03
3.986082e+03
3.979098e+03
3.971262e+03
3.962537e+03
3.952888e+03
3.942278e+03
3.930666e+03
3.918012e+03
3.904271e+03
3.889405e+03
3.873382e+03
3.856188e+03
3.837838e+03
3.818388e+03
3.797953e+03
3.776727e+03
3.754994e+03
3.733146e+03
3.711682e+03
3.691200e+03
3.672364e+03
3.655853e+03
3.642285e+03
3.632145e+03
3.625708e+03
3.622994e+03
3.623763e+03
3.627537e+03
3.633663e+03
3.641386e+03
3.649923e+03
3.658521e+03
3.666507e+03
3.673313e+03
3.678493e+03
3.681728e+03
4.015704e+03
4.015205e+03
4.014359e+03
4.013146e+03
4.011537e+03
4.009497e+03
4.006984e+03
4.003952e+03
4.000349e+03
3.996125e+03
3.991224e+03
3.985594e+03
3.979181e+03
3.971933e+03
3.963796e+03
3.954716e+03
3.944636e+03
3.933494e+03
3.921222e+03
3.907748e+03
3.892997e+03
3.876895e+03
3.859373e+03
3.840382e+03
3.819899e+03
3.797953e+03
3.774640e+03
3.750149e+03
3.724792e+03
3.699021e+03
3.673449e+03
3.648835e+03
3.626058e+03
3.606043e+03
3.589661e+03
3.577607e+03
3.570286e+03
3.567742e+03
3.569644e+03
3.575335e+03
3.583928e+03
3.594418e+03
3.605785e+03
3.617076e+03
3.627455e+03
3.636232e+03
3.642876e+03
3.647011e+03
4.011160e+03
4.010618e+03
4.009702e+03
4.008392e+03
4.006664e+03
4.004484e+03
4.001813e+03
3.998609e+03
3.994823e+03
3.990403e+03
3.985295e+03
3.979442e+03
3.972784e+03
3.965258e+03
3.956799e+03
3.947333e+03
3.936784e+03
3.925062e+03
3.912074e+03
3.897714e+03
3.881869e+03
3.864426e+03
3.845272e+03
3.824308e+03
3.801466e+03
3.776727e+03
3.750149e+03
3.721902e+03
3.692307e+03
3.661871e+03
3.631323e+03
3.601619e+03
3.573913e+03
3.549471e+03
3.529525e+03
3.515080e+03
3.506737e+03
3.504564e+03
3.508087e+03
3.516376e+03
3.528210e+03