# vtk DataFile Version 2.0
Simplicial Mesh Example
ASCII
DATASET UNSTRUCTURED_GRID
POINTS 146 double
0.000000e+00 0.000000e+00 0.0
1.000000e+01 0.000000e+00 0.0
1.000000e+01 1.000000e+01 0.0
0.000000e+00 1.000000e+01 0.0
1.000000e+00 1.000000e+01 0.0
2.000000e+00 1.000000e+01 0.0
3.000000e+00 1.000000e+01 0.0
4.000000e+00 1.000000e+01 0.0
5.000000e+00 1.000000e+01 0.0
6.000000e+00 1.000000e+01 0.0
7.000000e+00 1.000000e+01 0.0
8.000000e+00 1.000000e+01 0.0
9.000000e+00 1.000000e+01 0.0
1.000000e+01 9.000000e+00 0.0
1.000000e+01 8.000000e+00 0.0
1.000000e+01 7.000000e+00 0.0
1.000000e+01 6.000000e+00 0.0
1.000000e+01 5.000000e+00 0.0
1.000000e+01 4.000000e+00 0.0
1.000000e+01 3.000000e+00 0.0
1.000000e+01 2.000000e+00 0.0
1.000000e+01 1.000000e+00 0.0
9.000000e+00 0.000000e+00 0.0
8.000000e+00 0.000000e+00 0.0
7.000000e+00 0.000000e+00 0.0
6.000000e+00 0.000000e+00 0.0
5.000000e+00 0.000000e+00 0.0
4.000000e+00 0.000000e+00 0.0
3.000000e+00 0.000000e+00 0.0
2.000000e+00 0.000000e+00 0.0
1.000000e+00 0.000000e+00 0.0
0.000000e+00 1.000000e+00 0.0
0.000000e+00 2.000000e+00 0.0
0.000000e+00 3.000000e+00 0.0
0.000000e+00 4.000000e+00 0.0
0.000000e+00 5.000000e+00 0.0
0.000000e+00 6.000000e+00 0.0
0.000000e+00 7.000000e+00 0.0
0.000000e+00 8.000000e+00 0.0
0.000000e+00 9.000000e+00 0.0
4.939892e+00 5.122922e+00 0.0
2.963358e+00 2.813727e+00 0.0
2.813727e+00 7.036642e+00 0.0
7.071429e+00 2.928571e+00 0.0
7.019695e+00 7.186394e+00 0.0
4.931670e+00 2.107361e+00 0.0
2.241421e+00 4.930664e+00 0.0
7.892639e+00 4.931670e+00 0.0
4.930664e+00 7.758579e+00 0.0
1.705026e+00 1.705026e+00 0.0
1.705026e+00 8.294974e+00 0.0
8.294974e+00 1.705026e+00 0.0
8.294974e+00 8.294974e+00 0.0
1.511339e+00 3.592899e+00 0.0
3.592899e+00 1.511339e+00 0.0
3.592899e+00 8.488661e+00 0.0
6.407101e+00 1.511339e+00 0.0
1.511339e+00 6.407101e+00 0.0
8.479453e+00 3.616585e+00 0.0
8.488661e+00 6.407101e+00 0.0
6.407101e+00 8.488661e+00 0.0
4.330139e+00 3.598432e+00 0.0
3.590075e+00 5.753976e+00 0.0
6.360639e+00 4.279891e+00 0.0
5.740982e+00 6.346851e+00 0.0
3.119659e+00 4.280158e+00 0.0
5.684128e+00 3.404721e+00 0.0
4.229214e+00 6.631511e+00 0.0
6.504727e+00 5.675059e+00 0.0
4.619391e+00 1.094000e+00 0.0
1.098432e+00 5.335396e+00 0.0
8.905412e+00 4.620902e+00 0.0
5.335396e+00 8.901568e+00 0.0
9.766514e-01 2.609264e+00 0.0
2.609264e+00 9.023349e+00 0.0
2.597014e+00 9.939057e-01 0.0
9.022409e+00 2.611681e+00 0.0
7.402986e+00 9.939057e-01 0.0
9.023349e+00 7.390736e+00 0.0
9.939057e-01 7.402986e+00 0.0
7.402986e+00 9.006094e+00 0.0
3.958794e+00 2.547170e+00 0.0
2.642649e+00 5.987875e+00 0.0
7.452830e+00 3.958794e+00 0.0
5.989765e+00 7.344243e+00 0.0
6.047782e+00 2.517037e+00 0.0
7.467238e+00 6.049482e+00 0.0
4.000200e+00 4.640851e+00 0.0
4.889408e+00 6.013954e+00 0.0
9.987811e-01 9.987811e-01 0.0
9.987811e-01 9.001219e+00 0.0
9.001219e+00 9.987811e-01 0.0
9.001219e+00 9.001219e+00 0.0
8.324868e-01 4.299212e+00 0.0
4.299212e+00 9.167513e+00 0.0
5.693252e+00 8.317482e-01 0.0
9.168154e+00 5.693504e+00 0.0
2.629764e+00 2.003834e+00 0.0
2.003834e+00 7.370236e+00 0.0
7.206154e+00 2.062990e+00 0.0
7.370236e+00 7.996166e+00 0.0
2.034477e+00 2.735633e+00 0.0
8.012653e+00 2.722062e+00 0.0
2.735633e+00 7.965523e+00 0.0
8.012653e+00 7.277938e+00 0.0
2.445133e+00 3.739739e+00 0.0
3.732462e+00 7.519320e+00 0.0
5.112458e+00 4.120134e+00 0.0
5.903227e+00 5.088646e+00 0.0
3.072866e+00 5.058148e+00 0.0
6.460842e+00 3.457636e+00 0.0
5.156007e+00 6.819028e+00 0.0
6.528619e+00 6.459765e+00 0.0
6.640955e-01 3.500275e+00 0.0
3.500275e+00 9.335905e+00 0.0
3.561861e+00 7.198491e-01 0.0
9.281455e+00 3.569834e+00 0.0
6.500668e+00 6.673986e-01 0.0
9.336033e+00 6.498268e+00 0.0
7.207354e-01 6.429097e+00 0.0
6.429097e+00 9.279265e+00 0.0
7.997141e-01 1.798983e+00 0.0
1.798983e+00 9.200286e+00 0.0
1.798983e+00 7.997141e-01 0.0
9.200286e+00 1.798983e+00 0.0
8.201017e+00 7.997141e-01 0.0
9.200286e+00 8.201017e+00 0.0
7.997141e-01 8.201017e+00 0.0
8.201017e+00 9.200286e+00 0.0
3.488632e+00 3.561852e+00 0.0
4.914765e+00 3.011973e+00 0.0
3.429293e+00 6.526008e+00 0.0
6.968971e+00 4.929874e+00 0.0
1.625762e+00 4.379582e+00 0.0
4.378127e+00 8.367128e+00 0.0
5.608765e+00 1.684073e+00 0.0
8.315072e+00 5.608945e+00 0.0
4.259980e+00 1.826035e+00 0.0
1.838216e+00 5.727723e+00 0.0
8.182583e+00 4.281988e+00 0.0
5.727821e+00 8.161101e+00 0.0
5.552811e+00 5.659498e+00 0.0
3.330660e+00 2.186512e+00 0.0
2.186512e+00 6.669340e+00 0.0
6.669340e+00 7.813488e+00 0.0
4.299094e+00 5.503863e+00 0.0
CELLS 250 1000
3  145 67 88
3  0 31 89
3  3 4 90
3  0 89 30
3  1 91 21
3  1 22 91
3  3 90 39
3  2 13 92
3  2 92 12
3  65 87 129
3  66 85 130
3  68 86 132
3  62 67 145
3  63 66 107
3  63 107 108
3  46 65 105
3  48 67 106
3  130 85 45
3  132 86 47
3  129 87 61
3  58 102 83
3  43 83 102
3  56 85 99
3  26 27 69
3  17 18 71
3  35 36 70
3  8 9 72
3  27 115 69
3  18 116 71
3  36 119 70
3  9 120 72
3  46 105 133
3  48 106 134
3  62 131 67
3  43 99 85
3  61 87 107
3  64 68 141
3  46 109 65
3  63 110 66
3  48 111 67
3  64 112 68
3  40 108 107
3  54 69 115
3  58 71 116
3  57 70 119
3  60 72 120
3  32 33 73
3  5 6 74
3  28 29 75
3  19 20 76
3  23 24 77
3  14 15 78
3  37 38 79
3  10 11 80
3  59 86 104
3  40 107 87
3  44 104 86
3  26 69 95
3  17 71 96
3  35 70 93
3  8 72 94
3  54 75 97
3  56 99 77
3  57 79 98
3  60 80 100
3  45 135 69
3  47 136 71
3  46 133 70
3  48 134 72
3  68 108 141
3  62 109 82
3  64 111 84
3  64 84 112
3  63 83 110
3  49 73 101
3  50 74 103
3  51 102 76
3  52 78 104
3  46 82 109
3  48 84 111
3  43 110 83
3  44 112 84
3  25 26 95
3  16 17 96
3  34 35 93
3  7 8 94
3  45 85 135
3  47 86 136
3  32 73 121
3  5 74 122
3  29 123 75
3  20 124 76
3  23 77 125
3  14 78 126
3  38 127 79
3  11 128 80
3  55 103 74
3  53 101 73
3  59 104 78
3  58 76 102
3  49 97 75
3  50 98 79
3  51 77 99
3  52 100 80
3  31 32 121
3  4 5 122
3  29 30 123
3  20 21 124
3  22 23 125
3  13 14 126
3  38 39 127
3  11 12 128
3  69 135 95
3  71 136 96
3  70 133 93
3  72 134 94
3  31 121 89
3  4 122 90
3  30 89 123
3  21 91 124
3  22 125 91
3  13 126 92
3  39 90 127
3  12 92 128
3  49 101 97
3  51 99 102
3  50 103 98
3  52 104 100
3  62 82 131
3  61 81 129
3  61 130 81
3  63 132 83
3  46 70 138
3  57 138 70
3  54 137 69
3  45 69 137
3  48 72 140
3  60 140 72
3  58 139 71
3  47 71 139
3  57 119 79
3  33 113 73
3  6 114 74
3  60 120 80
3  37 79 119
3  54 115 75
3  10 80 120
3  28 75 115
3  24 117 77
3  19 76 116
3  15 118 78
3  56 77 117
3  58 116 76
3  53 73 113
3  59 78 118
3  55 74 114
3  41 105 129
3  65 129 105
3  42 106 131
3  67 131 106
3  55 106 103
3  53 105 101
3  41 129 81
3  42 131 82
3  45 81 130
3  47 83 132
3  61 107 130
3  66 130 107
3  63 108 132
3  68 132 108
3  42 103 106
3  41 101 105
3  49 121 73
3  50 122 74
3  49 75 123
3  50 79 127
3  51 76 124
3  51 125 77
3  52 126 78
3  52 80 128
3  66 110 85
3  43 85 110
3  68 112 86
3  44 86 112
3  41 97 101
3  42 98 103
3  43 102 99
3  44 100 104
3  65 109 87
3  62 87 109
3  67 111 88
3  64 88 111
3  45 137 81
3  46 138 82
3  58 83 139
3  47 139 83
3  48 140 84
3  41 81 142
3  42 82 143
3  44 84 144
3  54 97 142
3  57 98 143
3  60 100 144
3  56 135 85
3  59 136 86
3  81 137 142
3  82 138 143
3  84 140 144
3  49 89 121
3  49 123 89
3  50 90 122
3  50 127 90
3  51 91 125
3  51 124 91
3  52 92 126
3  52 128 92
3  54 142 137
3  57 143 138
3  60 144 140
3  34 93 113
3  7 94 114
3  53 113 93
3  55 114 94
3  25 95 117
3  56 117 95
3  16 96 118
3  59 118 96
3  53 133 105
3  55 134 106
3  33 34 113
3  6 7 114
3  27 28 115
3  18 19 116
3  24 25 117
3  15 16 118
3  36 37 119
3  9 10 120
3  40 88 141
3  40 87 145
3  40 145 88
3  64 141 88
3  53 93 133
3  55 94 134
3  56 95 135
3  59 96 136
3  62 145 87
3  42 143 98
3  41 142 97
3  44 144 100
3  40 141 108
CELL_TYPES 250
5
5
5
5
5
5
5
5
5
5
5
5
5
5
5
5
5
5
5
5
5
5
5
5
5
5
5
5
5
5
5
5
5
5
5
5
5
5
5
5
5
5
5
5
5
5
5
5
5
5
5
5
5
5
5
5
5
5
5
5
5
5
5
5
5
5
5
5
5
5
5
5
5
5
5
5
5
5
5
5
5
5
5
5
5
5
5
5
5
5
5
5
5
5
5
5
5
5
5
5
5
5
5
5
5
5
5
5
5
5
5
5
5
5
5
5
5
5
5
5
5
5
5
5
5
5
5
5
5
5
5
5
5
5
5
5
5
5
5
5
5
5
5
5
5
5
5
5
5
5
5
5
5
5
5
5
5
5
5
5
5
5
5
5
5
5
5
5
5
5
5
5
5
5
5
5
5
5
5
5
5
5
5
5
5
5
5
5
5
5
5
5
5
5
5
5
5
5
5
5
5
5
5
5
5
5
5
5
5
5
5
5
5
5
5
5
5
5
5
5
5
5
5
5
5
5
5
5
5
5
5
5
5
5
5
5
5
5
5
5
5
5
5
5
5
5
5
5
5
5
POINT_DATA 146
SCALARS Pressure double 1
LOOKUP_TABLE default
0.000000e+00
0.000000e+00
0.000000e+00
0.000000e+00
0.000000e+00
0.000000e+00
0.000000e+00
0.000000e+00
0.000000e+00
0.000000e+00
0.000000e+00
0.000000e+00
0.000000e+00
0.000000e+00
0.000000e+00
0.000000e+00
0.000000e+00
0.000000e+00
0.000000e+00
0.000000e+00
0.000000e+00
0.000000e+00
0.000000e+00
0.000000e+00
0.000000e+00
0.000000e+00
0.000000e+00
0.000000e+00
0.000000e+00
0.000000e+00
0.000000e+00
0.000000e+00
0.000000e+00
0.000000e+00
0.000000e+00
0.000000e+00
0.000000e+00
0.000000e+00
0.000000e+00
0.000000e+00
1.246958e-03
2.820097e-01
3.490835e-03
2.485778e-03
-2.639929e-01
6.677090e-02
6.650270e-02
-5.251931e-02
-5.531458e-02
1.470432e-01
8.429782e-04
8.516381e-04
-1.366173e-01
1.272558e-01
1.233496e-01
-1.437428e-02
1.771478e-02
1.723659e-02
-1.485410e-02
-1.180620e-01
-1.141496e-01
8.546688e-02
2.079002e-02
-1.418968e-02
-7.854715e-02
1.029605e-01
2.847684e-02
-1.991764e-02
-7.942777e-02
5.085283e-02
3.168776e-02
-2.678504e-02
-4.584359e-02
1.027407e-01
-3.419764e-03
1.058388e-01
-3.293395e-03
4.895544e-03
-9.644394e-02
4.777027e-03
-9.809832e-02
1.379724e-01
2.683197e-02
-2.020044e-02
-1.222146e-01
2.620705e-02
-1.211511e-01
5.424436e-02
-2.735579e-02
4.487941e-02
2.716229e-04
2.912523e-04
-4.174911e-02
4.685598e-02
-1.734648e-02
1.960472e-02
-4.269014e-02
2.908839e-01
5.576232e-03
6.969091e-03
-2.695002e-01
2.939519e-01
-3.072298e-03
-3.555748e-03
-2.644389e-01
1.550585e-01
-1.614626e-02
3.095630e-02
-3.119149e-02
5.825683e-02
5.167914e-03
-5.988098e-02
-1.357362e-01
5.502697e-02
-7.113221e-03
5.782787e-02
-7.997845e-03
8.543446e-03
-5.112964e-02
9.482394e-03
-5.350970e-02
6.393610e-02
-6.551456e-04
6.441219e-02
-6.135964e-04
1.487561e-03
-5.966768e-02
1.450724e-03
-5.979634e-02
1.431093e-01
6.676108e-02
3.113795e-03
-4.962371e-02
8.215311e-02
-3.112352e-02
3.663676e-02
-7.537819e-02
9.699716e-02
3.376258e-02
-2.913682e-02
-8.873931e-02
-4.171581e-02
2.017523e-01
1.395152e-02
-1.878643e-01
9.733960e-03
