# vtk DataFile Version 2.0
Simplicial Mesh Example
ASCII
DATASET UNSTRUCTURED_GRID
POINTS 3434 double
0.000000e+00 0.000000e+00 0.0
0.000000e+00 6.000000e+03 0.0
6.000000e+03 6.000000e+03 0.0
6.000000e+03 0.000000e+00 0.0
1.200000e+02 6.000000e+03 0.0
2.400000e+02 6.000000e+03 0.0
3.600000e+02 6.000000e+03 0.0
4.800000e+02 6.000000e+03 0.0
6.000000e+02 6.000000e+03 0.0
7.200000e+02 6.000000e+03 0.0
8.400000e+02 6.000000e+03 0.0
9.600000e+02 6.000000e+03 0.0
1.080000e+03 6.000000e+03 0.0
1.200000e+03 6.000000e+03 0.0
1.320000e+03 6.000000e+03 0.0
1.440000e+03 6.000000e+03 0.0
1.560000e+03 6.000000e+03 0.0
1.680000e+03 6.000000e+03 0.0
1.800000e+03 6.000000e+03 0.0
1.920000e+03 6.000000e+03 0.0
2.040000e+03 6.000000e+03 0.0
2.160000e+03 6.000000e+03 0.0
2.280000e+03 6.000000e+03 0.0
2.400000e+03 6.000000e+03 0.0
2.520000e+03 6.000000e+03 0.0
2.640000e+03 6.000000e+03 0.0
2.760000e+03 6.000000e+03 0.0
2.880000e+03 6.000000e+03 0.0
3.000000e+03 6.000000e+03 0.0
3.120000e+03 6.000000e+03 0.0
3.240000e+03 6.000000e+03 0.0
3.360000e+03 6.000000e+03 0.0
3.480000e+03 6.000000e+03 0.0
3.600000e+03 6.000000e+03 0.0
3.720000e+03 6.000000e+03 0.0
3.840000e+03 6.000000e+03 0.0
3.960000e+03 6.000000e+03 0.0
4.080000e+03 6.000000e+03 0.0
4.200000e+03 6.000000e+03 0.0
4.320000e+03 6.000000e+03 0.0
4.440000e+03 6.000000e+03 0.0
4.560000e+03 6.000000e+03 0.0
4.680000e+03 6.000000e+03 0.0
4.800000e+03 6.000000e+03 0.0
4.920000e+03 6.000000e+03 0.0
5.040000e+03 6.000000e+03 0.0
5.160000e+03 6.000000e+03 0.0
5.280000e+03 6.000000e+03 0.0
5.400000e+03 6.000000e+03 0.0
5.520000e+03 6.000000e+03 0.0
5.640000e+03 6.000000e+03 0.0
5.760000e+03 6.000000e+03 0.0
5.880000e+03 6.000000e+03 0.0
6.000000e+03 5.880000e+03 0.0
6.000000e+03 5.760000e+03 0.0
6.000000e+03 5.640000e+03 0.0
6.000000e+03 5.520000e+03 0.0
6.000000e+03 5.400000e+03 0.0
6.000000e+03 5.280000e+03 0.0
6.000000e+03 5.160000e+03 0.0
6.000000e+03 5.040000e+03 0.0
6.000000e+03 4.920000e+03 0.0
6.000000e+03 4.800000e+03 0.0
6.000000e+03 4.680000e+03 0.0
6.000000e+03 4.560000e+03 0.0
6.000000e+03 4.440000e+03 0.0
6.000000e+03 4.320000e+03 0.0
6.000000e+03 4.200000e+03 0.0
6.000000e+03 4.080000e+03 0.0
6.000000e+03 3.960000e+03 0.0
6.000000e+03 3.840000e+03 0.0
6.000000e+03 3.720000e+03 0.0
6.000000e+03 3.600000e+03 0.0
6.000000e+03 3.480000e+03 0.0
6.000000e+03 3.360000e+03 0.0
6.000000e+03 3.240000e+03 0.0
6.000000e+03 3.120000e+03 0.0
6.000000e+03 3.000000e+03 0.0
6.000000e+03 2.880000e+03 0.0
6.000000e+03 2.760000e+03 0.0
6.000000e+03 2.640000e+03 0.0
6.000000e+03 2.520000e+03 0.0
6.000000e+03 2.400000e+03 0.0
6.000000e+03 2.280000e+03 0.0
6.000000e+03 2.160000e+03 0.0
6.000000e+03 2.040000e+03 0.0
6.000000e+03 1.920000e+03 0.0
6.000000e+03 1.800000e+03 0.0
6.000000e+03 1.680000e+03 0.0
6.000000e+03 1.560000e+03 0.0
6.000000e+03 1.440000e+03 0.0
6.000000e+03 1.320000e+03 0.0
6.000000e+03 1.200000e+03 0.0
6.000000e+03 1.080000e+03 0.0
6.000000e+03 9.600000e+02 0.0
6.000000e+03 8.400000e+02 0.0
6.000000e+03 7.200000e+02 0.0
6.000000e+03 6.000000e+02 0.0
6.000000e+03 4.800000e+02 0.0
6.000000e+03 3.600000e+02 0.0
6.000000e+03 2.400000e+02 0.0
6.000000e+03 1.200000e+02 0.0
5.880000e+03 0.000000e+00 0.0
5.760000e+03 0.000000e+00 0.0
5.640000e+03 0.000000e+00 0.0
5.520000e+03 0.000000e+00 0.0
5.400000e+03 0.000000e+00 0.0
5.280000e+03 0.000000e+00 0.0
5.160000e+03 0.000000e+00 0.0
5.040000e+03 0.000000e+00 0.0
4.920000e+03 0.000000e+00 0.0
4.800000e+03 0.000000e+00 0.0
4.680000e+03 0.000000e+00 0.0
4.560000e+03 0.000000e+00 0.0
4.440000e+03 0.000000e+00 0.0
4.320000e+03 0.000000e+00 0.0
4.200000e+03 0.000000e+00 0.0
4.080000e+03 0.000000e+00 0.0
3.960000e+03 0.000000e+00 0.0
3.840000e+03 0.000000e+00 0.0
3.720000e+03 0.000000e+00 0.0
3.600000e+03 0.000000e+00 0.0
3.480000e+03 0.000000e+00 0.0
3.360000e+03 0.000000e+00 0.0
3.240000e+03 0.000000e+00 0.0
3.120000e+03 0.000000e+00 0.0
3.000000e+03 0.000000e+00 0.0
2.880000e+03 0.000000e+00 0.0
2.760000e+03 0.000000e+00 0.0
2.640000e+03 0.000000e+00 0.0
2.520000e+03 0.000000e+00 0.0
2.400000e+03 0.000000e+00 0.0
2.280000e+03 0.000000e+00 0.0
2.160000e+03 0.000000e+00 0.0
2.040000e+03 0.000000e+00 0.0
1.920000e+03 0.000000e+00 0.0
1.800000e+03 0.000000e+00 0.0
1.680000e+03 0.000000e+00 0.0
1.560000e+03 0.000000e+00 0.0
1.440000e+03 0.000000e+00 0.0
1.320000e+03 0.000000e+00 0.0
1.200000e+03 0.000000e+00 0.0
1.080000e+03 0.000000e+00 0.0
9.600000e+02 0.000000e+00 0.0
8.400000e+02 0.000000e+00 0.0
7.200000e+02 0.000000e+00 0.0
6.000000e+02 0.000000e+00 0.0
4.800000e+02 0.000000e+00 0.0
3.600000e+02 0.000000e+00 0.0
2.400000e+02 0.000000e+00 0.0
1.200000e+02 0.000000e+00 0.0
0.000000e+00 1.200000e+02 0.0
0.000000e+00 2.400000e+02 0.0
0.000000e+00 3.600000e+02 0.0
0.000000e+00 4.800000e+02 0.0
0.000000e+00 6.000000e+02 0.0
0.000000e+00 7.200000e+02 0.0
0.000000e+00 8.400000e+02 0.0
0.000000e+00 9.600000e+02 0.0
0.000000e+00 1.080000e+03 0.0
0.000000e+00 1.200000e+03 0.0
0.000000e+00 1.320000e+03 0.0
0.000000e+00 1.440000e+03 0.0
0.000000e+00 1.560000e+03 0.0
0.000000e+00 1.680000e+03 0.0
0.000000e+00 1.800000e+03 0.0
0.000000e+00 1.920000e+03 0.0
0.000000e+00 2.040000e+03 0.0
0.000000e+00 2.160000e+03 0.0
0.000000e+00 2.280000e+03 0.0
0.000000e+00 2.400000e+03 0.0
0.000000e+00 2.520000e+03 0.0
0.000000e+00 2.640000e+03 0.0
0.000000e+00 2.760000e+03 0.0
0.000000e+00 2.880000e+03 0.0
0.000000e+00 3.000000e+03 0.0
0.000000e+00 3.120000e+03 0.0
0.000000e+00 3.240000e+03 0.0
0.000000e+00 3.360000e+03 0.0
0.000000e+00 3.480000e+03 0.0
0.000000e+00 3.600000e+03 0.0
0.000000e+00 3.720000e+03 0.0
0.000000e+00 3.840000e+03 0.0
0.000000e+00 3.960000e+03 0.0
0.000000e+00 4.080000e+03 0.0
0.000000e+00 4.200000e+03 0.0
0.000000e+00 4.320000e+03 0.0
0.000000e+00 4.440000e+03 0.0
0.000000e+00 4.560000e+03 0.0
0.000000e+00 4.680000e+03 0.0
0.000000e+00 4.800000e+03 0.0
0.000000e+00 4.920000e+03 0.0
0.000000e+00 5.040000e+03 0.0
0.000000e+00 5.160000e+03 0.0
0.000000e+00 5.280000e+03 0.0
0.000000e+00 5.400000e+03 0.0
0.000000e+00 5.520000e+03 0.0
0.000000e+00 5.640000e+03 0.0
0.000000e+00 5.760000e+03 0.0
0.000000e+00 5.880000e+03 0.0
2.991889e+03 2.999313e+03 0.0
4.219077e+03 4.232284e+03 0.0
4.243703e+03 1.760400e+03 0.0
1.733175e+03 4.230505e+03 0.0
1.759719e+03 1.746984e+03 0.0
3.000000e+03 4.681882e+03 0.0
4.656800e+03 3.015200e+03 0.0
1.316422e+03 2.989349e+03 0.0
3.021860e+03 1.296892e+03 0.0
4.967359e+03 4.984645e+03 0.0
4.984645e+03 1.032641e+03 0.0
1.015355e+03 4.967359e+03 0.0
1.032641e+03 1.015355e+03 0.0
3.405348e+03 3.846066e+03 0.0
3.822807e+03 2.567508e+03 0.0
2.157857e+03 3.394572e+03 0.0
2.602607e+03 2.164129e+03 0.0
5.070355e+03 3.838854e+03 0.0
2.162263e+03 5.074729e+03 0.0
3.822163e+03 5.079881e+03 0.0
3.838854e+03 9.296454e+02 0.0
9.252714e+02 2.162263e+03 0.0
9.138108e+02 3.852075e+03 0.0
5.072571e+03 2.164902e+03 0.0
2.164905e+03 9.274261e+02 0.0
4.087722e+03 3.503008e+03 0.0
2.665775e+03 3.991808e+03 0.0
3.508335e+03 1.907379e+03 0.0
2.007553e+03 2.654109e+03 0.0
2.785118e+03 5.325477e+03 0.0
6.745233e+02 2.785118e+03 0.0
5.324632e+03 3.209569e+03 0.0
3.209569e+03 6.753677e+02 0.0
5.341403e+03 4.437094e+03 0.0
4.437094e+03 6.585973e+02 0.0
1.572822e+03 5.340333e+03 0.0
6.596675e+02 1.572822e+03 0.0
4.423818e+03 5.349979e+03 0.0
6.500207e+02 4.423818e+03 0.0
5.349979e+03 1.576182e+03 0.0
1.576182e+03 6.500207e+02 0.0
3.623663e+03 4.456248e+03 0.0
4.452983e+03 2.376458e+03 0.0
1.547202e+03 3.617457e+03 0.0
2.381574e+03 1.557157e+03 0.0
3.589132e+03 3.164427e+03 0.0
3.168737e+03 2.418878e+03 0.0
6.091451e+02 5.385515e+03 0.0
6.144845e+02 6.091451e+02 0.0
5.385515e+03 5.390855e+03 0.0
5.390855e+03 6.144845e+02 0.0
2.306989e+03 4.484700e+03 0.0
1.500122e+03 2.283949e+03 0.0
3.365967e+03 5.417112e+03 0.0
5.828877e+02 3.365967e+03 0.0
5.417112e+03 2.634033e+03 0.0
2.634033e+03 5.828877e+02 0.0
4.790819e+03 4.450107e+03 0.0
4.450107e+03 1.209181e+03 0.0
1.572428e+03 4.783081e+03 0.0
1.216919e+03 1.572428e+03 0.0
4.329456e+03 4.808056e+03 0.0
1.194566e+03 4.339800e+03 0.0
4.805412e+03 1.660170e+03 0.0
1.660200e+03 1.194566e+03 0.0
2.946812e+03 3.541936e+03 0.0
2.459475e+03 2.944378e+03 0.0
4.536359e+03 3.788892e+03 0.0
3.788892e+03 1.463641e+03 0.0
4.164289e+03 2.983261e+03 0.0
2.126003e+03 3.926710e+03 0.0
2.992706e+03 1.844419e+03 0.0
2.088762e+03 2.142321e+03 0.0
5.500632e+03 4.908651e+03 0.0
4.908651e+03 4.993684e+02 0.0
1.091349e+03 5.500632e+03 0.0
4.993684e+02 1.091349e+03 0.0
4.993684e+02 4.908651e+03 0.0
4.908651e+03 5.500632e+03 0.0
1.091349e+03 4.993684e+02 0.0
5.500632e+03 1.091349e+03 0.0
3.878194e+03 3.925131e+03 0.0
3.075886e+03 4.204501e+03 0.0
3.925131e+03 2.121806e+03 0.0
1.794396e+03 3.084190e+03 0.0
2.348089e+03 5.524347e+03 0.0
4.756530e+02 2.348089e+03 0.0
5.524643e+03 3.655633e+03 0.0
3.655633e+03 4.753574e+02 0.0
3.992893e+03 5.524940e+03 0.0
4.750599e+02 3.992893e+03 0.0
5.524940e+03 2.007107e+03 0.0
2.007107e+03 4.750599e+02 0.0
3.397798e+03 4.950479e+03 0.0
1.051542e+03 3.385971e+03 0.0
4.948458e+03 2.614029e+03 0.0
2.614029e+03 1.051542e+03 0.0
4.818736e+03 3.451826e+03 0.0
3.451826e+03 1.181264e+03 0.0
2.602767e+03 4.906648e+03 0.0
1.093352e+03 2.602767e+03 0.0
2.723442e+03 2.560910e+03 0.0
3.449103e+03 2.754872e+03 0.0
5.566010e+03 4.087462e+03 0.0
4.087462e+03 4.339902e+02 0.0
1.933931e+03 5.574817e+03 0.0
4.251835e+02 1.933931e+03 0.0
2.546761e+03 3.588979e+03 0.0
2.714736e+03 4.387332e+03 0.0
1.621295e+03 2.700017e+03 0.0
3.683840e+03 3.557088e+03 0.0
3.565083e+03 2.328902e+03 0.0
1.969560e+03 4.738928e+03 0.0
1.261072e+03 1.969560e+03 0.0
4.454037e+03 3.329265e+03 0.0
3.348098e+03 1.541411e+03 0.0
1.432866e+03 4.007803e+03 0.0
1.997256e+03 1.432580e+03 0.0
3.932694e+03 4.667717e+03 0.0
4.558080e+03 1.989932e+03 0.0
2.342020e+03 2.448785e+03 0.0
3.333916e+03 3.426183e+03 0.0
2.715531e+03 3.245959e+03 0.0
3.030651e+03 5.611500e+03 0.0
3.922309e+02 3.030194e+03 0.0
5.640732e+03 2.958931e+03 0.0
2.960360e+03 3.631725e+02 0.0
4.764315e+03 4.073210e+03 0.0
4.073210e+03 1.235685e+03 0.0
[...]
POINT_DATA 3434
SCALARS Pressure double 1
LOOKUP_TABLE default
2.561016e+03
2.341159e+03
2.146117e+03
2.341616e+03
2.340998e+03
2.340521e+03
2.339716e+03
2.338592e+03
2.337150e+03
2.335391e+03
2.333308e+03
2.330904e+03
2.328177e+03
2.325147e+03
2.321799e+03
2.318130e+03
2.314155e+03
2.309872e+03
2.305289e+03
2.300384e+03
2.295200e+03
2.289696e+03
2.283947e+03
2.277891e+03
2.271571e+03
2.264996e+03
2.258168e+03
2.251142e+03
2.243914e+03
2.236527e+03
2.229018e+03
2.221434e+03
2.213833e+03
2.206288e+03
2.198865e+03
2.191677e+03
2.184809e+03
2.178323e+03
2.172356e+03
2.166989e+03
2.162268e+03
2.158258e+03
2.154917e+03
2.152235e+03
2.150206e+03
2.148681e+03
2.147622e+03
2.146913e+03
2.146498e+03
2.146269e+03
2.146160e+03
2.146124e+03
2.146117e+03
2.146120e+03
2.146134e+03
2.146184e+03
2.146312e+03
2.146562e+03
2.147010e+03
2.147741e+03
2.148832e+03
2.150394e+03
2.152479e+03
2.155176e+03
2.158548e+03
2.162610e+03
2.167357e+03
2.172741e+03
2.178740e+03
2.185207e+03
2.192114e+03
2.199296e+03
2.206719e+03
2.214271e+03
2.221872e+03
2.229451e+03
2.236963e+03
2.244350e+03
2.251572e+03
2.258603e+03
2.265417e+03
2.271998e+03
2.278310e+03
2.284375e+03
2.290133e+03
2.295613e+03
2.300819e+03
2.305717e+03
2.310309e+03
2.314597e+03
2.318566e+03
2.322233e+03
2.325594e+03
2.328616e+03
2.331345e+03
2.333751e+03
2.335845e+03
2.337597e+03
2.339042e+03
2.340167e+03
2.340977e+03
2.341455e+03
2.341777e+03
2.342259e+03
2.343072e+03
2.344207e+03
2.345664e+03
2.347444e+03
2.349556e+03
2.351995e+03
2.354767e+03
2.357853e+03
2.361270e+03
2.365022e+03
2.369102e+03
2.373513e+03
2.378248e+03
2.383332e+03
2.388725e+03
2.394480e+03
2.400516e+03
2.406914e+03
2.413629e+03
2.420649e+03
2.428002e+03
2.435626e+03
2.443530e+03
2.451692e+03
2.460071e+03
2.468628e+03
2.477308e+03
2.486044e+03
2.494752e+03
2.503320e+03
2.511627e+03
2.519581e+03
2.527009e+03
2.533778e+03
2.539807e+03
2.544983e+03
2.549335e+03
2.552859e+03
2.555541e+03
2.557570e+03
2.558986e+03
2.559937e+03
2.560495e+03
2.560806e+03
2.560955e+03
2.561006e+03
2.561016e+03
2.561018e+03
2.561016e+03
2.560977e+03
2.560844e+03
2.560556e+03
2.560012e+03
2.559097e+03
2.557705e+03
2.555693e+03
2.552997e+03
2.549507e+03
2.545152e+03
2.539956e+03
2.533932e+03
2.527165e+03
2.519689e+03
2.511719e+03
2.503325e+03
2.494699e+03
2.485918e+03
2.477110e+03
2.468365e+03
2.459769e+03
2.451333e+03
2.443143e+03
2.435213e+03
2.427564e+03
2.420215e+03
2.413170e+03
2.406461e+03
2.400054e+03
2.394009e+03
2.388277e+03
2.382862e+03
2.377788e+03
2.373048e+03
2.368637e+03
2.364568e+03
2.360817e+03
2.357389e+03
2.354314e+03
2.351542e+03
2.349103e+03
2.346984e+03
2.345213e+03
2.343754e+03
2.342619e+03
2.341802e+03
2.341320e+03
2.339517e+03
2.150674e+03
2.340943e+03
2.342140e+03
2.611130e+03
2.257929e+03
2.257892e+03
2.424719e+03
2.423672e+03
2.130315e+03
2.341215e+03
2.341561e+03
2.592441e+03
2.262769e+03
2.319362e+03
2.363306e+03
2.412631e+03
2.184053e+03
2.298398e+03
2.185136e+03
2.384626e+03
2.507684e+03
2.383844e+03
2.298720e+03
2.507810e+03
2.241251e+03
2.305402e+03
2.369296e+03
2.417897e+03
2.260346e+03
2.454429e+03
2.233180e+03
2.425162e+03
2.151046e+03
2.364266e+03
2.318432e+03
2.553662e+03
2.151525e+03
2.364404e+03
2.318614e+03
2.552860e+03
2.211854e+03
2.304206e+03
2.377678e+03
2.471016e+03
2.294556e+03
2.362748e+03
2.341262e+03
2.563537e+03
2.144355e+03
2.341556e+03
2.306503e+03
2.503469e+03
2.221482e+03
2.416163e+03
2.268688e+03
2.467374e+03
2.102297e+03
2.352083e+03
2.329912e+03
2.662080e+03
2.117762e+03
2.356013e+03
2.326533e+03
2.643306e+03
2.310895e+03
2.373642e+03
2.191335e+03
2.372203e+03
2.277568e+03
2.337683e+03
2.403467e+03
2.465228e+03
2.145605e+03
2.352212e+03
2.330678e+03
2.562155e+03
2.351765e+03
2.145426e+03
2.561931e+03
2.331119e+03
2.219430e+03
2.269001e+03
2.338304e+03
2.399314e+03
2.282724e+03
2.490145e+03
2.202052e+03
2.401381e+03
2.179485e+03
2.384197e+03
2.299400e+03
2.517195e+03
2.221953e+03
2.406171e+03
2.277093e+03
2.462726e+03
2.219637e+03
2.399331e+03
2.278275e+03
2.461772e+03
2.381278e+03
2.327763e+03
2.174919e+03
2.380849e+03
2.301681e+03
2.522182e+03
2.332080e+03
2.286296e+03
2.434344e+03
2.262036e+03
2.345527e+03
2.315212e+03
2.584512e+03
2.239646e+03
2.393724e+03
2.362434e+03
2.583309e+03
2.169925e+03
2.320037e+03
2.411610e+03
2.293308e+03
2.341322e+03
2.242882e+03
2.439684e+03
2.247656e+03
2.445074e+03
2.152105e+03
2.366085e+03
2.248042e+03
2.251759e+03
2.432371e+03
2.435441e+03
2.315359e+03
2.582075e+03
2.126053e+03
2.330981e+03
2.351772e+03
2.613739e+03
2.202460e+03
2.402074e+03
2.282108e+03
2.489984e+03
2.284146e+03
2.356430e+03
2.525571e+03
2.431330e+03
2.145938e+03
2.341709e+03
2.341085e+03
2.561304e+03
2.264217e+03
2.465347e+03
2.224321e+03
2.421741e+03
2.154534e+03
2.362515e+03
2.320615e+03
2.550417e+03
2.154124e+03
2.361973e+03
2.321082e+03
2.550256e+03
2.129407e+03
2.352682e+03
2.330259e+03
2.604434e+03
2.155335e+03
2.369911e+03
2.156328e+03
2.369504e+03
2.313431e+03
2.564588e+03
2.242016e+03
2.286466e+03
2.384001e+03
2.193749e+03
2.189502e+03
2.354547e+03
2.315141e+03
2.377889e+03
2.242595e+03
2.211535e+03
2.403982e+03
2.398618e+03
2.146269e+03
2.347838e+03
2.335010e+03
2.561075e+03
2.347120e+03
2.146090e+03
2.561073e+03
2.335718e+03
2.273024e+03
2.378601e+03
2.297133e+03
2.314983e+03
2.451170e+03
2.440351e+03
2.385418e+03
2.488822e+03
2.278631e+03
2.476752e+03
2.007447e+03
2.339980e+03
2.342540e+03
3.014935e+03
2.325781e+03
2.166584e+03
2.373571e+03
2.309764e+03
2.534029e+03
2.140577e+03
2.338558e+03
2.344265e+03
2.568913e+03
2.299878e+03
2.389844e+03
2.325536e+03
2.544334e+03
2.102459e+03
2.341702e+03
2.340939e+03
2.654117e+03
2.202535e+03
2.200188e+03
2.398257e+03
2.285805e+03
2.491131e+03
2.297484e+03
2.492539e+03
2.355372e+03
2.319752e+03
2.442287e+03
2.313258e+03
2.369464e+03
2.578705e+03
2.358538e+03
2.223213e+03
2.420814e+03
2.263831e+03
2.465260e+03
2.150975e+03
2.356735e+03
2.299063e+03
2.358455e+03
2.137551e+03
2.349827e+03
2.333001e+03
2.572795e+03
2.240901e+03
2.432755e+03
2.254983e+03
2.445594e+03
2.360256e+03
2.303548e+03
2.524979e+03
2.318884e+03
2.183913e+03
2.387069e+03
2.132101e+03
2.192655e+03
2.383228e+03
2.165732e+03
2.372824e+03
2.310091e+03
2.535066e+03
2.285247e+03
2.396005e+03
2.233944e+03
2.418389e+03
2.288103e+03
2.456790e+03
2.221159e+03
2.374413e+03
2.326736e+03
2.191434e+03
2.393734e+03
2.290336e+03
2.503818e+03
2.330106e+03
2.641264e+03
2.312711e+03
2.138407e+03
2.349969e+03
2.332879e+03
2.572565e+03
2.345190e+03
2.142569e+03
2.565911e+03
2.337639e+03
2.236310e+03
2.256910e+03
2.261300e+03
2.388663e+03
2.410485e+03
2.429126e+03
2.396194e+03
2.344960e+03
2.214658e+03
2.387271e+03
2.286108e+03
2.269510e+03
2.288390e+03
2.417307e+03
2.415189e+03
2.236103e+03
2.334819e+03
2.353307e+03
2.150519e+03
2.356240e+03
2.326730e+03
2.555580e+03
2.355697e+03
2.150289e+03
2.555421e+03
2.327253e+03
2.238144e+03
2.188346e+03
2.391442e+03
2.292818e+03
2.507070e+03
2.264130e+03
2.450744e+03
2.176098e+03
2.381298e+03
2.302072e+03
2.519837e+03
2.227186e+03
2.417545e+03
2.267055e+03
2.458369e+03
2.209419e+03
2.408758e+03
2.275472e+03
2.481685e+03
2.204029e+03
2.397528e+03
2.286979e+03
2.486024e+03
2.146800e+03
2.357702e+03
2.325265e+03
2.560510e+03
2.146478e+03
2.357239e+03
2.325698e+03
2.560262e+03
2.409548e+03
2.384819e+03
2.340455e+03
2.530163e+03
2.330135e+03
2.163874e+03
2.373765e+03
2.239047e+03
2.407532e+03
2.292130e+03
2.502579e+03
2.427335e+03
2.338129e+03
2.561154e+03
2.146113e+03
2.344683e+03
2.146060e+03
2.344076e+03
2.338730e+03
2.561109e+03
2.460973e+03
2.163238e+03
2.216887e+03
2.411705e+03
2.264889e+03
2.273226e+03
2.443352e+03
2.167161e+03
2.375608e+03
2.307663e+03
2.532281e+03
2.398906e+03
2.379723e+03
2.131516e+03
2.358577e+03
2.271399e+03
2.471675e+03
2.264955e+03
2.417471e+03
2.441363e+03
2.187179e+03
2.345645e+03
2.100170e+03
2.351347e+03
2.340820e+03
2.217892e+03
2.272405e+03
2.374887e+03
2.350392e+03
2.642429e+03
2.301175e+03
2.368065e+03
2.331740e+03
2.243682e+03
2.316995e+03
2.557439e+03
2.328701e+03
2.250985e+03
2.452017e+03
2.237779e+03
2.434057e+03
2.337260e+03
2.284241e+03
2.222889e+03
2.188078e+03
2.310793e+03
2.451608e+03
2.075452e+03
2.335488e+03
2.347020e+03
2.687949e+03
2.288830e+03
2.485055e+03
2.133316e+03
2.323356e+03
2.359395e+03
2.608923e+03
2.300501e+03
2.452634e+03
2.258518e+03
2.360137e+03
2.422988e+03
2.321374e+03
2.588754e+03
2.310276e+03
2.320124e+03
2.566335e+03
2.613570e+03
2.310694e+03
2.539496e+03
2.246463e+03
2.422800e+03
2.220872e+03
2.360254e+03
2.293278e+03
2.401689e+03
2.307951e+03
2.373929e+03
2.525512e+03
2.175709e+03
2.380956e+03
2.302311e+03
2.522838e+03
2.350664e+03
2.199287e+03
2.397299e+03
2.178272e+03
2.382955e+03
2.300708e+03
2.519499e+03
2.293524e+03
2.507813e+03
2.353677e+03
2.581560e+03
2.144238e+03
2.347184e+03
2.335661e+03
2.563896e+03
2.301352e+03
2.273632e+03
2.255179e+03
2.452806e+03
2.236533e+03
2.431986e+03
2.182838e+03
2.291591e+03
2.201303e+03
2.393339e+03
2.146099e+03
2.341609e+03
2.341172e+03
2.561055e+03
2.261150e+03
2.437110e+03
2.137464e+03
2.344044e+03
2.338766e+03
2.572865e+03
2.212080e+03
2.411216e+03
2.273785e+03
2.479164e+03
2.361676e+03
2.298951e+03
2.430873e+03
2.148206e+03
2.351608e+03
2.331286e+03
2.558553e+03
2.351112e+03
2.148079e+03
2.558378e+03
2.331770e+03
2.131973e+03
2.360839e+03
2.347672e+03
2.160686e+03
2.367625e+03
2.315571e+03
2.541770e+03
2.163586e+03
2.373387e+03
2.192790e+03
2.393912e+03
2.290002e+03
2.500762e+03
2.162586e+03
2.371479e+03
2.236554e+03
2.433788e+03
2.252072e+03
2.451587e+03
2.316291e+03
2.140078e+03
2.355737e+03
2.327133e+03
2.569194e+03
2.393330e+03
2.157956e+03
2.366969e+03
2.316170e+03
2.545005e+03
2.316287e+03
2.546177e+03
2.360091e+03
2.617451e+03
2.172520e+03
2.379351e+03
2.139729e+03
2.326307e+03
2.327583e+03
2.496488e+03
2.366036e+03
2.524666e+03
2.321974e+03
2.330090e+03
2.238076e+03
2.277897e+03
2.251241e+03
2.446080e+03
2.357476e+03
2.232132e+03
2.342028e+03
2.214138e+03
2.407473e+03
2.276660e+03
2.474486e+03
2.390969e+03
2.176507e+03
2.372960e+03
2.384708e+03
2.302745e+03
2.231130e+03
2.426804e+03
2.259190e+03
2.457439e+03
2.314744e+03
2.159528e+03
2.349228e+03
2.214541e+03
2.412134e+03
2.272160e+03
2.475091e+03
2.409312e+03
2.427745e+03
2.303273e+03
2.379441e+03
2.528520e+03
2.160145e+03
2.367116e+03
2.316010e+03
2.542974e+03
2.329033e+03
2.595575e+03
2.121259e+03
2.337569e+03
2.345158e+03
2.620573e+03
2.326584e+03
2.392816e+03
2.110833e+03
2.121208e+03
2.349323e+03
2.345201e+03
2.332682e+03
2.337530e+03
2.642746e+03
2.621259e+03
2.425649e+03
2.340213e+03
2.561884e+03
2.145550e+03
2.342594e+03
2.285564e+03
2.349313e+03
2.486015e+03
2.385509e+03
2.308301e+03
2.541426e+03
2.274153e+03
2.432809e+03
2.251769e+03
2.441157e+03
2.244561e+03
2.433595e+03
2.141458e+03
2.357359e+03
2.325540e+03
2.573021e+03
2.212303e+03
2.200755e+03
2.366216e+03
2.343730e+03
2.562086e+03
2.145366e+03
2.339085e+03
2.186631e+03
2.389654e+03
2.412782e+03
2.289432e+03
2.377315e+03
2.052774e+03
2.343970e+03
2.337959e+03
2.703462e+03
2.369785e+03
2.292146e+03
2.315379e+03
2.499473e+03
2.165534e+03
2.350701e+03
2.323861e+03
2.199439e+03
2.400632e+03
2.284021e+03
2.493953e+03
2.238170e+03
2.382006e+03
2.317679e+03
2.314443e+03
2.553024e+03
2.301067e+03
2.323718e+03
2.620002e+03
2.317493e+03
2.146124e+03
2.343134e+03
2.339659e+03
2.561071e+03
2.146096e+03
2.342571e+03
2.340219e+03
2.561054e+03
2.252376e+03
2.307325e+03
2.317753e+03
2.375602e+03
2.364937e+03
2.547369e+03
2.597733e+03
2.148151e+03
2.364979e+03
2.154702e+03
2.361232e+03
2.321836e+03
2.550126e+03
2.360882e+03
2.154507e+03
2.549849e+03
2.322165e+03
2.353013e+03
2.266574e+03
2.470509e+03
2.219896e+03
2.420829e+03
2.103687e+03
2.344346e+03
2.438340e+03
2.315241e+03
2.348086e+03
2.145022e+03
2.562524e+03
2.334764e+03
2.147963e+03
2.364675e+03
2.318258e+03
2.566565e+03
2.096453e+03
2.311563e+03
2.367155e+03
2.270037e+03
2.464299e+03
2.143187e+03
2.371683e+03
2.561433e+03
2.194516e+03
2.270799e+03
2.280435e+03
2.331081e+03
2.351068e+03
2.679866e+03
2.220472e+03
2.224503e+03
2.406590e+03
2.414576e+03
2.279480e+03
2.395228e+03
2.113132e+03
2.330398e+03
2.352247e+03
2.641190e+03
2.211265e+03
2.348882e+03
2.311468e+03
2.287695e+03
2.302467e+03
2.527199e+03
2.296581e+03
2.395307e+03
2.476541e+03
2.332946e+03
2.696071e+03
2.154135e+03
2.364226e+03
2.419265e+03
2.265487e+03
2.450396e+03
2.306832e+03
2.539846e+03
2.214135e+03
2.411851e+03
2.187633e+03
2.388706e+03
2.294407e+03
2.504431e+03
2.149671e+03
2.357120e+03
2.325863e+03
2.556923e+03
2.356652e+03
2.149261e+03
2.556736e+03
2.326303e+03
2.141209e+03
2.348281e+03
2.334560e+03
2.567676e+03
2.208702e+03
2.146842e+03
2.347529e+03
2.335310e+03
2.560254e+03
2.347124e+03
2.146762e+03
2.560147e+03
2.335708e+03
2.258339e+03
2.377659e+03
2.384451e+03
2.472957e+03
2.326176e+03
2.289408e+03
2.493171e+03
2.251414e+03
2.178257e+03
2.378254e+03
2.146818e+03
2.351077e+03
2.331810e+03
2.560452e+03
2.170026e+03
2.403554e+03
2.275611e+03
2.273759e+03
2.477747e+03
2.338796e+03
2.661094e+03
2.136176e+03
2.344944e+03
2.337865e+03
2.575205e+03
2.288652e+03
2.470106e+03
2.432687e+03
2.297947e+03
2.476225e+03
2.283461e+03
2.493722e+03
2.200028e+03
2.401003e+03
2.283003e+03
2.487312e+03
2.372399e+03
2.326583e+03
2.178673e+03
2.360911e+03
2.144916e+03
2.338097e+03
2.344729e+03
2.562848e+03
2.170825e+03
2.377571e+03
2.305839e+03
2.528294e+03
2.389915e+03
2.233276e+03
2.411890e+03
2.141283e+03
2.347800e+03
2.335041e+03
2.568107e+03
2.277070e+03
2.469043e+03
2.332601e+03
2.341123e+03
2.565772e+03
2.142752e+03
2.341698e+03
2.305429e+03
2.259316e+03
2.308812e+03
2.534285e+03
2.209914e+03
2.405911e+03
2.277736e+03
2.480514e+03
2.308302e+03
2.531068e+03
2.169081e+03
2.375108e+03
2.413780e+03
2.161208e+03
2.308059e+03
2.268984e+03
2.449292e+03
2.346095e+03
2.395765e+03
2.456292e+03
2.185663e+03
2.389110e+03
2.294815e+03
2.511081e+03
2.344503e+03
2.144340e+03
2.563497e+03
2.338322e+03
2.250077e+03
2.443930e+03
2.242116e+03
2.435638e+03
2.138034e+03
2.359347e+03
2.249083e+03
2.408397e+03
2.257036e+03
2.324391e+03
2.631595e+03
2.276822e+03
2.402488e+03
2.219457e+03
2.176204e+03
2.381987e+03
2.388712e+03
2.425819e+03
2.365383e+03
2.388468e+03
2.494534e+03
2.294776e+03
2.195920e+03
2.477266e+03
2.363329e+03
2.309327e+03
2.241789e+03
2.428705e+03
2.257305e+03
2.445503e+03
2.352316e+03
2.147646e+03
2.558954e+03
2.330581e+03
2.445295e+03
2.224610e+03
2.420973e+03
2.406541e+03
2.198084e+03
2.381114e+03
2.370873e+03
2.227374e+03
2.398873e+03
2.264449e+03
2.399954e+03
2.322769e+03
2.322310e+03
2.600942e+03
2.200693e+03
2.248284e+03
2.115085e+03
2.355952e+03
2.196617e+03
2.393349e+03
2.455160e+03
2.219273e+03
2.407231e+03
2.276527e+03
2.468407e+03
2.332131e+03
2.283855e+03
2.493347e+03
2.199992e+03
2.400461e+03
2.335245e+03
2.571672e+03
2.344803e+03
2.570563e+03
2.413581e+03
2.209124e+03
2.391574e+03
2.333653e+03
2.167429e+03
2.365027e+03
2.415039e+03
2.328754e+03
2.398681e+03
2.131706e+03
2.347054e+03
2.335740e+03
2.589401e+03
2.307838e+03
2.531181e+03
2.169465e+03
2.375616e+03
2.229188e+03
2.421687e+03
2.262622e+03
2.459494e+03
2.293354e+03
2.459148e+03
2.340522e+03
2.273690e+03
2.411460e+03
2.208801e+03
2.227024e+03
2.377048e+03
2.386562e+03
2.129791e+03
2.337231e+03
2.345543e+03
2.597090e+03
2.373225e+03
2.299614e+03
2.262293e+03
2.464418e+03
2.225110e+03
2.423552e+03
2.443740e+03
2.422515e+03
2.138378e+03
2.360331e+03
2.322520e+03
2.587931e+03
2.298920e+03
2.517131e+03
2.297894e+03
2.512143e+03
2.162094e+03
2.373062e+03
2.310028e+03
2.538508e+03
2.138955e+03
2.359299e+03
2.315002e+03
2.108822e+03
2.335660e+03
2.347000e+03
2.644184e+03
2.351164e+03
2.386209e+03
2.272627e+03
2.181491e+03
2.385404e+03
2.298132e+03
2.513903e+03
2.244945e+03
2.443796e+03
2.244310e+03
2.442724e+03
2.353068e+03
2.143402e+03
2.564611e+03
2.329816e+03
2.289022e+03
2.336343e+03
2.319390e+03
2.406012e+03
2.346419e+03
2.444831e+03
2.143741e+03
2.353529e+03
2.329379e+03
2.564789e+03
2.280849e+03
2.454889e+03
2.182429e+03
2.386522e+03
2.297481e+03
2.515160e+03
2.262719e+03
2.460367e+03
2.267856e+03
2.414265e+03
2.186618e+03
2.388173e+03
2.228137e+03
2.370885e+03
2.239492e+03
2.434602e+03
2.251354e+03
2.447049e+03
2.327646e+03
2.622691e+03
2.366288e+03
2.114550e+03
2.355838e+03
2.160365e+03
2.368352e+03
2.145730e+03
2.342431e+03
2.340372e+03
2.561585e+03
2.132405e+03
2.351910e+03
2.330895e+03
2.592485e+03
2.168569e+03
2.375695e+03
2.180779e+03
2.385168e+03
2.298589e+03
2.516128e+03
2.344066e+03
2.233472e+03
2.258918e+03
2.460857e+03
2.427617e+03
2.228871e+03
2.252028e+03
2.399373e+03
2.191945e+03
2.393252e+03
2.256170e+03
2.430606e+03
2.323842e+03
2.241993e+03
2.427250e+03
2.305638e+03
2.150849e+03
2.361897e+03
2.321113e+03
2.554280e+03
2.320819e+03
2.552955e+03
2.185000e+03
2.192505e+03
2.395040e+03
2.289765e+03
2.501738e+03
2.304995e+03
2.366174e+03
2.280237e+03
2.334512e+03
2.233169e+03
2.161651e+03
2.370636e+03
2.312572e+03
2.540001e+03
2.277023e+03
2.286187e+03
2.232112e+03
2.244658e+03
2.174003e+03
2.380323e+03
2.303082e+03
2.523524e+03
2.137346e+03
2.349718e+03
2.184057e+03
2.387674e+03
2.296181e+03
2.512464e+03
2.229699e+03
2.194677e+03
2.394076e+03
2.291757e+03
2.496588e+03
2.337927e+03
2.145670e+03
2.561792e+03
2.344894e+03
2.135457e+03
2.353276e+03
2.329444e+03
2.581426e+03
2.390959e+03
2.315179e+03
2.283563e+03
2.201789e+03
2.400886e+03
2.283328e+03
2.490224e+03
2.279342e+03
2.424089e+03
2.236224e+03
2.425327e+03
2.342445e+03
2.418621e+03
2.235407e+03
2.293261e+03
2.356304e+03
2.150116e+03
2.354696e+03
2.328247e+03
2.556070e+03
2.354232e+03
2.149908e+03
2.555936e+03
2.328696e+03
2.335381e+03
2.247644e+03
2.140381e+03
2.341940e+03
2.340877e+03
2.569017e+03
2.211811e+03
2.435085e+03
2.255010e+03
2.275033e+03
2.149160e+03
2.367201e+03
2.376281e+03
2.210213e+03
2.405318e+03
2.361559e+03
2.555972e+03
2.298121e+03
2.392918e+03
2.250564e+03
2.388381e+03
2.492371e+03
2.306326e+03
2.442221e+03
2.368540e+03
2.305086e+03
2.234431e+03
2.188842e+03
2.385351e+03
2.315656e+03
2.543605e+03
2.173430e+03
2.356949e+03
2.400568e+03
2.309371e+03
2.538871e+03
2.257511e+03
2.440199e+03
2.168013e+03
2.314628e+03
2.531967e+03
2.359869e+03
2.340118e+03
2.247694e+03
2.417544e+03
2.336259e+03
2.360893e+03
2.163917e+03
2.374344e+03
2.426239e+03
2.229919e+03
2.209194e+03
2.395359e+03
2.296387e+03
2.413206e+03
2.287394e+03
2.257083e+03
2.416382e+03
2.205526e+03
2.255622e+03
2.233242e+03
2.430226e+03
2.454683e+03
2.376725e+03
2.078334e+03
2.349596e+03
2.248568e+03
2.335150e+03
2.433763e+03
2.300722e+03
2.168321e+03
2.376152e+03
2.446143e+03
2.289215e+03
2.154965e+03
2.367846e+03
2.315205e+03
2.547869e+03
2.447561e+03
2.309198e+03
2.326876e+03
2.651632e+03
2.352005e+03
2.289217e+03
2.426148e+03
2.309398e+03
2.560133e+03
2.273520e+03
2.302639e+03
2.380290e+03
2.519109e+03
2.249696e+03
2.456123e+03
2.240305e+03
2.429554e+03
2.265731e+03
2.422569e+03
2.317198e+03
2.300379e+03
2.268016e+03
2.464548e+03
2.353381e+03
2.147744e+03
2.349889e+03
2.332979e+03
2.559109e+03
2.349426e+03
2.147620e+03
2.558990e+03
2.333433e+03
2.148101e+03
2.353736e+03
2.329188e+03
2.558782e+03
2.092720e+03
2.345414e+03
2.337342e+03
2.665632e+03
2.158579e+03
2.274776e+03
2.481405e+03
2.210544e+03
2.410212e+03
2.288803e+03
2.498936e+03
2.141230e+03
2.353745e+03
2.329127e+03
2.567490e+03
2.314503e+03
2.545033e+03
2.122616e+03
2.353040e+03
2.321665e+03
2.146319e+03
2.344631e+03
2.338174e+03
2.560854e+03
2.146311e+03
2.344419e+03
2.338385e+03
2.560753e+03
2.311205e+03
2.192218e+03
2.394316e+03
2.289732e+03
2.502599e+03
2.370054e+03
2.438692e+03
2.309666e+03
2.532646e+03
2.299057e+03
2.516200e+03
2.304721e+03
2.315204e+03
2.588206e+03
2.332373e+03
2.335490e+03
2.539436e+03
2.503867e+03
2.319462e+03
2.465173e+03
2.370970e+03
2.289623e+03
2.503057e+03
2.192251e+03
2.394532e+03
2.181806e+03
2.287197e+03
2.348429e+03
2.400426e+03
2.405906e+03
2.348377e+03
2.614488e+03
2.285670e+03
2.473405e+03
2.264091e+03
2.312022e+03
2.537127e+03
2.164806e+03
2.371286e+03
2.336885e+03
2.155361e+03
2.368096e+03
2.522282e+03
2.157998e+03
2.364546e+03
2.318584e+03
2.545300e+03
2.404386e+03
2.348081e+03
2.422701e+03
2.296269e+03
2.497791e+03
2.260014e+03
2.450286e+03
2.280009e+03
2.405155e+03
2.235881e+03