# vtk DataFile Version 2.0
Simplicial Mesh Example
ASCII
DATASET UNSTRUCTURED_GRID
POINTS 3434 double
0.000000e+00 0.000000e+00 0.0
0.000000e+00 6.000000e+03 0.0
6.000000e+03 6.000000e+03 0.0
6.000000e+03 0.000000e+00 0.0
1.200000e+02 6.000000e+03 0.0
2.400000e+02 6.000000e+03 0.0
3.600000e+02 6.000000e+03 0.0
4.800000e+02 6.000000e+03 0.0
6.000000e+02 6.000000e+03 0.0
7.200000e+02 6.000000e+03 0.0
8.400000e+02 6.000000e+03 0.0
9.600000e+02 6.000000e+03 0.0
1.080000e+03 6.000000e+03 0.0
1.200000e+03 6.000000e+03 0.0
1.320000e+03 6.000000e+03 0.0
1.440000e+03 6.000000e+03 0.0
1.560000e+03 6.000000e+03 0.0
1.680000e+03 6.000000e+03 0.0
1.800000e+03 6.000000e+03 0.0
1.920000e+03 6.000000e+03 0.0
2.040000e+03 6.000000e+03 0.0
2.160000e+03 6.000000e+03 0.0
2.280000e+03 6.000000e+03 0.0
2.400000e+03 6.000000e+03 0.0
2.520000e+03 6.000000e+03 0.0
2.640000e+03 6.000000e+03 0.0
2.760000e+03 6.000000e+03 0.0
2.880000e+03 6.000000e+03 0.0
3.000000e+03 6.000000e+03 0.0
3.120000e+03 6.000000e+03 0.0
3.240000e+03 6.000000e+03 0.0
3.360000e+03 6.000000e+03 0.0
3.480000e+03 6.000000e+03 0.0
3.600000e+03 6.000000e+03 0.0
3.720000e+03 6.000000e+03 0.0
3.840000e+03 6.000000e+03 0.0
3.960000e+03 6.000000e+03 0.0
4.080000e+03 6.000000e+03 0.0
4.200000e+03 6.000000e+03 0.0
4.320000e+03 6.000000e+03 0.0
4.440000e+03 6.000000e+03 0.0
4.560000e+03 6.000000e+03 0.0
4.680000e+03 6.000000e+03 0.0
4.800000e+03 6.000000e+03 0.0
4.920000e+03 6.000000e+03 0.0
5.040000e+03 6.000000e+03 0.0
5.160000e+03 6.000000e+03 0.0
5.280000e+03 6.000000e+03 0.0
5.400000e+03 6.000000e+03 0.0
5.520000e+03 6.000000e+03 0.0
5.640000e+03 6.000000e+03 0.0
5.760000e+03 6.000000e+03 0.0
5.880000e+03 6.000000e+03 0.0
6.000000e+03 5.880000e+03 0.0
6.000000e+03 5.760000e+03 0.0
6.000000e+03 5.640000e+03 0.0
6.000000e+03 5.520000e+03 0.0
6.000000e+03 5.400000e+03 0.0
6.000000e+03 5.280000e+03 0.0
6.000000e+03 5.160000e+03 0.0
6.000000e+03 5.040000e+03 0.0
6.000000e+03 4.920000e+03 0.0
6.000000e+03 4.800000e+03 0.0
6.000000e+03 4.680000e+03 0.0
6.000000e+03 4.560000e+03 0.0
6.000000e+03 4.440000e+03 0.0
6.000000e+03 4.320000e+03 0.0
6.000000e+03 4.200000e+03 0.0
6.000000e+03 4.080000e+03 0.0
6.000000e+03 3.960000e+03 0.0
6.000000e+03 3.840000e+03 0.0
6.000000e+03 3.720000e+03 0.0
6.000000e+03 3.600000e+03 0.0
6.000000e+03 3.480000e+03 0.0
6.000000e+03 3.360000e+03 0.0
6.000000e+03 3.240000e+03 0.0
6.000000e+03 3.120000e+03 0.0
6.000000e+03 3.000000e+03 0.0
6.000000e+03 2.880000e+03 0.0
6.000000e+03 2.760000e+03 0.0
6.000000e+03 2.640000e+03 0.0
6.000000e+03 2.520000e+03 0.0
6.000000e+03 2.400000e+03 0.0
6.000000e+03 2.280000e+03 0.0
6.000000e+03 2.160000e+03 0.0
6.000000e+03 2.040000e+03 0.0
6.000000e+03 1.920000e+03 0.0
6.000000e+03 1.800000e+03 0.0
6.000000e+03 1.680000e+03 0.0
6.000000e+03 1.560000e+03 0.0
6.000000e+03 1.440000e+03 0.0
6.000000e+03 1.320000e+03 0.0
6.000000e+03 1.200000e+03 0.0
6.000000e+03 1.080000e+03 0.0
6.000000e+03 9.600000e+02 0.0
6.000000e+03 8.400000e+02 0.0
6.000000e+03 7.200000e+02 0.0
6.000000e+03 6.000000e+02 0.0
6.000000e+03 4.800000e+02 0.0
6.000000e+03 3.600000e+02 0.0
6.000000e+03 2.400000e+02 0.0
6.000000e+03 1.200000e+02 0.0
5.880000e+03 0.000000e+00 0.0
5.760000e+03 0.000000e+00 0.0
5.640000e+03 0.000000e+00 0.0
5.520000e+03 0.000000e+00 0.0
5.400000e+03 0.000000e+00 0.0
5.280000e+03 0.000000e+00 0.0
5.160000e+03 0.000000e+00 0.0
5.040000e+03 0.000000e+00 0.0
4.920000e+03 0.000000e+00 0.0
4.800000e+03 0.000000e+00 0.0
4.680000e+03 0.000000e+00 0.0
4.560000e+03 0.000000e+00 0.0
4.440000e+03 0.000000e+00 0.0
4.320000e+03 0.000000e+00 0.0
4.200000e+03 0.000000e+00 0.0
4.080000e+03 0.000000e+00 0.0
3.960000e+03 0.000000e+00 0.0
3.840000e+03 0.000000e+00 0.0
3.720000e+03 0.000000e+00 0.0
3.600000e+03 0.000000e+00 0.0
3.480000e+03 0.000000e+00 0.0
3.360000e+03 0.000000e+00 0.0
3.240000e+03 0.000000e+00 0.0
3.120000e+03 0.000000e+00 0.0
3.000000e+03 0.000000e+00 0.0
2.880000e+03 0.000000e+00 0.0
2.760000e+03 0.000000e+00 0.0
2.640000e+03 0.000000e+00 0.0
2.520000e+03 0.000000e+00 0.0
2.400000e+03 0.000000e+00 0.0
2.280000e+03 0.000000e+00 0.0
2.160000e+03 0.000000e+00 0.0
2.040000e+03 0.000000e+00 0.0
1.920000e+03 0.000000e+00 0.0
1.800000e+03 0.000000e+00 0.0
1.680000e+03 0.000000e+00 0.0
1.560000e+03 0.000000e+00 0.0
1.440000e+03 0.000000e+00 0.0
1.320000e+03 0.000000e+00 0.0
1.200000e+03 0.000000e+00 0.0
1.080000e+03 0.000000e+00 0.0
9.600000e+02 0.000000e+00 0.0
8.400000e+02 0.000000e+00 0.0
7.200000e+02 0.000000e+00 0.0
6.000000e+02 0.000000e+00 0.0
4.800000e+02 0.000000e+00 0.0
3.600000e+02 0.000000e+00 0.0
2.400000e+02 0.000000e+00 0.0
1.200000e+02 0.000000e+00 0.0
0.000000e+00 1.200000e+02 0.0
0.000000e+00 2.400000e+02 0.0
0.000000e+00 3.600000e+02 0.0
0.000000e+00 4.800000e+02 0.0
0.000000e+00 6.000000e+02 0.0
0.000000e+00 7.200000e+02 0.0
0.000000e+00 8.400000e+02 0.0
0.000000e+00 9.600000e+02 0.0
0.000000e+00 1.080000e+03 0.0
0.000000e+00 1.200000e+03 0.0
0.000000e+00 1.320000e+03 0.0
0.000000e+00 1.440000e+03 0.0
0.000000e+00 1.560000e+03 0.0
0.000000e+00 1.680000e+03 0.0
0.000000e+00 1.800000e+03 0.0
0.000000e+00 1.920000e+03 0.0
0.000000e+00 2.040000e+03 0.0
0.000000e+00 2.160000e+03 0.0
0.000000e+00 2.280000e+03 0.0
0.000000e+00 2.400000e+03 0.0
0.000000e+00 2.520000e+03 0.0
0.000000e+00 2.640000e+03 0.0
0.000000e+00 2.760000e+03 0.0
0.000000e+00 2.880000e+03 0.0
0.000000e+00 3.000000e+03 0.0
0.000000e+00 3.120000e+03 0.0
0.000000e+00 3.240000e+03 0.0
0.000000e+00 3.360000e+03 0.0
0.000000e+00 3.480000e+03 0.0
0.000000e+00 3.600000e+03 0.0
0.000000e+00 3.720000e+03 0.0
0.000000e+00 3.840000e+03 0.0
0.000000e+00 3.960000e+03 0.0
0.000000e+00 4.080000e+03 0.0
0.000000e+00 4.200000e+03 0.0
0.000000e+00 4.320000e+03 0.0
0.000000e+00 4.440000e+03 0.0
0.000000e+00 4.560000e+03 0.0
0.000000e+00 4.680000e+03 0.0
0.000000e+00 4.800000e+03 0.0
0.000000e+00 4.920000e+03 0.0
0.000000e+00 5.040000e+03 0.0
0.000000e+00 5.160000e+03 0.0
0.000000e+00 5.280000e+03 0.0
0.000000e+00 5.400000e+03 0.0
0.000000e+00 5.520000e+03 0.0
0.000000e+00 5.640000e+03 0.0
0.000000e+00 5.760000e+03 0.0
0.000000e+00 5.880000e+03 0.0
2.991889e+03 2.999313e+03 0.0
4.219077e+03 4.232284e+03 0.0
4.243703e+03 1.760400e+03 0.0
1.733175e+03 4.230505e+03 0.0
1.759719e+03 1.746984e+03 0.0
3.000000e+03 4.681882e+03 0.0
4.656800e+03 3.015200e+03 0.0
1.316422e+03 2.989349e+03 0.0
3.021860e+03 1.296892e+03 0.0
4.967359e+03 4.984645e+03 0.0
4.984645e+03 1.032641e+03 0.0
1.015355e+03 4.967359e+03 0.0
1.032641e+03 1.015355e+03 0.0
3.405348e+03 3.846066e+03 0.0
3.822807e+03 2.567508e+03 0.0
2.157857e+03 3.394572e+03 0.0
2.602607e+03 2.164129e+03 0.0
5.070355e+03 3.838854e+03 0.0
2.162263e+03 5.074729e+03 0.0
3.822163e+03 5.079881e+03 0.0
3.838854e+03 9.296454e+02 0.0
9.252714e+02 2.162263e+03 0.0
9.138108e+02 3.852075e+03 0.0
5.072571e+03 2.164902e+03 0.0
2.164905e+03 9.274261e+02 0.0
4.087722e+03 3.503008e+03 0.0
2.665775e+03 3.991808e+03 0.0
3.508335e+03 1.907379e+03 0.0
2.007553e+03 2.654109e+03 0.0
2.785118e+03 5.325477e+03 0.0
6.745233e+02 2.785118e+03 0.0
5.324632e+03 3.209569e+03 0.0
3.209569e+03 6.753677e+02 0.0
5.341403e+03 4.437094e+03 0.0
4.437094e+03 6.585973e+02 0.0
1.572822e+03 5.340333e+03 0.0
6.596675e+02 1.572822e+03 0.0
4.423818e+03 5.349979e+03 0.0
6.500207e+02 4.423818e+03 0.0
5.349979e+03 1.576182e+03 0.0
1.576182e+03 6.500207e+02 0.0
3.623663e+03 4.456248e+03 0.0
4.452983e+03 2.376458e+03 0.0
1.547202e+03 3.617457e+03 0.0
2.381574e+03 1.557157e+03 0.0
3.589132e+03 3.164427e+03 0.0
3.168737e+03 2.418878e+03 0.0
6.091451e+02 5.385515e+03 0.0
6.144845e+02 6.091451e+02 0.0
5.385515e+03 5.390855e+03 0.0
5.390855e+03 6.144845e+02 0.0
2.306989e+03 4.484700e+03 0.0
1.500122e+03 2.283949e+03 0.0
3.365967e+03 5.417112e+03 0.0
5.828877e+02 3.365967e+03 0.0
5.417112e+03 2.634033e+03 0.0
2.634033e+03 5.828877e+02 0.0
4.790819e+03 4.450107e+03 0.0
4.450107e+03 1.209181e+03 0.0
1.572428e+03 4.783081e+03 0.0
1.216919e+03 1.572428e+03 0.0
4.329456e+03 4.808056e+03 0.0
1.194566e+03 4.339800e+03 0.0
4.805412e+03 1.660170e+03 0.0
1.660200e+03 1.194566e+03 0.0
2.946812e+03 3.541936e+03 0.0
2.459475e+03 2.944378e+03 0.0
4.536359e+03 3.788892e+03 0.0
3.788892e+03 1.463641e+03 0.0
4.164289e+03 2.983261e+03 0.0
2.126003e+03 3.926710e+03 0.0
2.992706e+03 1.844419e+03 0.0
2.088762e+03 2.142321e+03 0.0
5.500632e+03 4.908651e+03 0.0
4.908651e+03 4.993684e+02 0.0
1.091349e+03 5.500632e+03 0.0
4.993684e+02 1.091349e+03 0.0
4.993684e+02 4.908651e+03 0.0
4.908651e+03 5.500632e+03 0.0
1.091349e+03 4.993684e+02 0.0
5.500632e+03 1.091349e+03 0.0
3.878194e+03 3.925131e+03 0.0
3.075886e+03 4.204501e+03 0.0
3.925131e+03 2.121806e+03 0.0
1.794396e+03 3.084190e+03 0.0
2.348089e+03 5.524347e+03 0.0
4.756530e+02 2.348089e+03 0.0
5.524643e+03 3.655633e+03 0.0
3.655633e+03 4.753574e+02 0.0
3.992893e+03 5.524940e+03 0.0
4.750599e+02 3.992893e+03 0.0
5.524940e+03 2.007107e+03 0.0
2.007107e+03 4.750599e+02 0.0
3.397798e+03 4.950479e+03 0.0
1.051542e+03 3.385971e+03 0.0
4.948458e+03 2.614029e+03 0.0
2.614029e+03 1.051542e+03 0.0
4.818736e+03 3.451826e+03 0.0
3.451826e+03 1.181264e+03 0.0
2.602767e+03 4.906648e+03 0.0
1.093352e+03 2.602767e+03 0.0
2.723442e+03 2.560910e+03 0.0
3.449103e+03 2.754872e+03 0.0
5.566010e+03 4.087462e+03 0.0
4.087462e+03 4.339902e+02 0.0
1.933931e+03 5.574817e+03 0.0
4.251835e+02 1.933931e+03 0.0
2.546761e+03 3.588979e+03 0.0
2.714736e+03 4.387332e+03 0.0
1.621295e+03 2.700017e+03 0.0
3.683840e+03 3.557088e+03 0.0
3.565083e+03 2.328902e+03 0.0
1.969560e+03 4.738928e+03 0.0
1.261072e+03 1.969560e+03 0.0
4.454037e+03 3.329265e+03 0.0
3.348098e+03 1.541411e+03 0.0
1.432866e+03 4.007803e+03 0.0
1.997256e+03 1.432580e+03 0.0
3.932694e+03 4.667717e+03 0.0
4.558080e+03 1.989932e+03 0.0
2.342020e+03 2.448785e+03 0.0
3.333916e+03 3.426183e+03 0.0
2.715531e+03 3.245959e+03 0.0
3.030651e+03 5.611500e+03 0.0
3.922309e+02 3.030194e+03 0.0
5.640732e+03 2.958931e+03 0.0
2.960360e+03 3.631725e+02 0.0
4.764315e+03 4.073210e+03 0.0
4.073210e+03 1.235685e+03 0.0
[...]
POINT_DATA 3434
SCALARS Water_saturation double 1
LOOKUP_TABLE default
2.020248e-01
2.023360e-01
2.026124e-01
2.023353e-01
2.023362e-01
2.023369e-01
2.023380e-01
2.023396e-01
2.023416e-01
2.023441e-01
2.023471e-01
2.023505e-01
2.023544e-01
2.023586e-01
2.023634e-01
2.023686e-01
2.023742e-01
2.023803e-01
2.023868e-01
2.023937e-01
2.024011e-01
2.024089e-01
2.024170e-01
2.024256e-01
2.024346e-01
2.024439e-01
2.024536e-01
2.024636e-01
2.024738e-01
2.024843e-01
2.024949e-01
2.025057e-01
2.025165e-01
2.025272e-01
2.025377e-01
2.025479e-01
2.025576e-01
2.025668e-01
2.025752e-01
2.025828e-01
2.025895e-01
2.025952e-01
2.025999e-01
2.026037e-01
2.026066e-01
2.026088e-01
2.026103e-01
2.026113e-01
2.026119e-01
2.026122e-01
2.026123e-01
2.026124e-01
2.026124e-01
2.026124e-01
2.026124e-01
2.026123e-01
2.026121e-01
2.026118e-01
2.026111e-01
2.026101e-01
2.026085e-01
2.026063e-01
2.026034e-01
2.025996e-01
2.025948e-01
2.025890e-01
2.025823e-01
2.025747e-01
2.025662e-01
2.025570e-01
2.025472e-01
2.025371e-01
2.025265e-01
2.025158e-01
2.025050e-01
2.024943e-01
2.024837e-01
2.024732e-01
2.024629e-01
2.024530e-01
2.024433e-01
2.024340e-01
2.024250e-01
2.024164e-01
2.024083e-01
2.024005e-01
2.023931e-01
2.023862e-01
2.023797e-01
2.023736e-01
2.023680e-01
2.023628e-01
2.023580e-01
2.023537e-01
2.023499e-01
2.023465e-01
2.023435e-01
2.023410e-01
2.023390e-01
2.023374e-01
2.023362e-01
2.023355e-01
2.023351e-01
2.023344e-01
2.023332e-01
2.023316e-01
2.023296e-01
2.023271e-01
2.023241e-01
2.023206e-01
2.023167e-01
2.023123e-01
2.023075e-01
2.023022e-01
2.022964e-01
2.022901e-01
2.022834e-01
2.022763e-01
2.022686e-01
2.022605e-01
2.022519e-01
2.022429e-01
2.022334e-01
2.022234e-01
2.022130e-01
2.022023e-01
2.021911e-01
2.021795e-01
2.021677e-01
2.021556e-01
2.021433e-01
2.021309e-01
2.021186e-01
2.021065e-01
2.020947e-01
2.020835e-01
2.020730e-01
2.020634e-01
2.020549e-01
2.020475e-01
2.020414e-01
2.020364e-01
2.020326e-01
2.020297e-01
2.020277e-01
2.020264e-01
2.020256e-01
2.020251e-01
2.020249e-01
2.020249e-01
2.020248e-01
2.020248e-01
2.020248e-01
2.020249e-01
2.020251e-01
2.020255e-01
2.020263e-01
2.020276e-01
2.020295e-01
2.020324e-01
2.020362e-01
2.020411e-01
2.020473e-01
2.020547e-01
2.020632e-01
2.020728e-01
2.020833e-01
2.020946e-01
2.021065e-01
2.021187e-01
2.021311e-01
2.021436e-01
2.021559e-01
2.021681e-01
2.021800e-01
2.021916e-01
2.022028e-01
2.022137e-01
2.022241e-01
2.022340e-01
2.022435e-01
2.022526e-01
2.022611e-01
2.022693e-01
2.022769e-01
2.022841e-01
2.022908e-01
2.022971e-01
2.023028e-01
2.023081e-01
2.023130e-01
2.023173e-01
2.023213e-01
2.023247e-01
2.023277e-01
2.023302e-01
2.023323e-01
2.023339e-01
2.023350e-01
2.023357e-01
2.023384e-01
2.026068e-01
2.023363e-01
2.023346e-01
8.352789e-01
2.024540e-01
2.024540e-01
2.022177e-01
2.022192e-01
2.026349e-01
2.023359e-01
2.023354e-01
5.558561e-01
2.024471e-01
2.023669e-01
2.023047e-01
2.022349e-01
2.025588e-01
2.023966e-01
2.025572e-01
2.022744e-01
2.214093e-01
2.022755e-01
2.023961e-01
2.175127e-01
2.024777e-01
2.023867e-01
2.022962e-01
2.022274e-01
2.024505e-01
2.021757e-01
2.024890e-01
2.022171e-01
2.026055e-01
2.023032e-01
2.023682e-01
2.046883e-01
2.026048e-01
2.023031e-01
2.023679e-01
2.021859e-01
2.025194e-01
2.023884e-01
2.022843e-01
3.785095e-01
2.024021e-01
2.023055e-01
2.023358e-01
2.020213e-01
2.026149e-01
2.023354e-01
2.023851e-01
6.890041e-01
2.025056e-01
2.022298e-01
2.024387e-01
2.021574e-01
2.026755e-01
2.023205e-01
2.023519e-01
8.427137e-01
2.026533e-01
2.023149e-01
2.023567e-01
8.264582e-01
2.023789e-01
2.022901e-01
2.025486e-01
2.022920e-01
2.024262e-01
2.023409e-01
2.022478e-01
4.846407e-01
2.026131e-01
2.023203e-01
2.023508e-01
2.020233e-01
2.023209e-01
2.026134e-01
2.020236e-01
2.023502e-01
2.025087e-01
2.024383e-01
2.023401e-01
2.022537e-01
2.024188e-01
2.021252e-01
2.025332e-01
2.022507e-01
2.025652e-01
2.022750e-01
2.023951e-01
2.020869e-01
2.025050e-01
2.022440e-01
2.024268e-01
2.021640e-01
2.025083e-01
2.022536e-01
2.024251e-01
2.021653e-01
2.022793e-01
2.023550e-01
2.025716e-01
2.022798e-01
2.023919e-01
2.020798e-01
2.023489e-01
2.024138e-01
2.022042e-01
2.024482e-01
2.023298e-01
2.023727e-01
7.995702e-01
2.024799e-01
2.022616e-01
2.023059e-01
8.092571e-01
2.025790e-01
2.023659e-01
2.022364e-01
2.024039e-01
2.023358e-01
2.024753e-01
2.021965e-01
2.024685e-01
2.021889e-01
2.026044e-01
2.023007e-01
2.024680e-01
2.024627e-01
2.022069e-01
2.022025e-01
2.023725e-01
7.629975e-01
2.026411e-01
2.023504e-01
2.023209e-01
7.655468e-01
2.025326e-01
2.022497e-01
2.024196e-01
2.021254e-01
2.024168e-01
2.023144e-01
7.729609e-01
2.022084e-01
2.026127e-01
2.023352e-01
2.023361e-01
2.020244e-01
2.024450e-01
2.021602e-01
2.025016e-01
2.022219e-01
2.026005e-01
2.023057e-01
2.023651e-01
2.020399e-01
2.026011e-01
2.023065e-01
2.023644e-01
2.020401e-01
2.026363e-01
2.023196e-01
2.023514e-01
7.452933e-01
2.025995e-01
2.022953e-01
2.025981e-01
2.022958e-01
2.023753e-01
6.241809e-01
2.024766e-01
2.024135e-01
2.022754e-01
2.025452e-01
2.025512e-01
2.023170e-01
2.023729e-01
2.022840e-01
2.024758e-01
2.025197e-01
2.022470e-01
2.022547e-01
2.026122e-01
2.023265e-01
2.023447e-01
2.020248e-01
2.023275e-01
2.026124e-01
2.020248e-01
2.023437e-01
2.024326e-01
2.022830e-01
2.023984e-01
2.023731e-01
2.235411e-01
2.021957e-01
2.022733e-01
3.347678e-01
2.024246e-01
2.021441e-01
2.028349e-01
2.023377e-01
2.023340e-01
9.891567e-01
2.023578e-01
2.025834e-01
2.022901e-01
2.023804e-01
2.020631e-01
2.026203e-01
2.023396e-01
2.023316e-01
2.020137e-01
2.023945e-01
2.022671e-01
2.023581e-01
7.847647e-01
2.026749e-01
2.023352e-01
2.023363e-01
8.218943e-01
2.025326e-01
2.025358e-01
2.022551e-01
2.024144e-01
2.021238e-01
2.023979e-01
3.554180e-01
2.023159e-01
2.023664e-01
2.030082e-01
2.023755e-01
2.022959e-01
7.791873e-01
2.023114e-01
2.025032e-01
2.022232e-01
2.024456e-01
2.021603e-01
2.026061e-01
2.023139e-01
2.023957e-01
2.023115e-01
2.026246e-01
2.023237e-01
2.023475e-01
2.032045e-01
2.024781e-01
2.022063e-01
2.024581e-01
2.021882e-01
2.023090e-01
2.023893e-01
2.020917e-01
2.023676e-01
2.025589e-01
2.022710e-01
2.026333e-01
2.025466e-01
2.022764e-01
2.025846e-01
2.022911e-01
2.023800e-01
2.020616e-01
2.024152e-01
2.022584e-01
2.024880e-01
2.022267e-01
2.024112e-01
2.021724e-01
2.025062e-01
2.022889e-01
2.023565e-01
2.025482e-01
2.022615e-01
2.024080e-01
2.021058e-01
2.023516e-01
8.460172e-01
2.023763e-01
2.026234e-01
2.023235e-01
2.023477e-01
2.020960e-01
2.023303e-01
2.026174e-01
2.020180e-01
2.023409e-01
2.024847e-01
2.024555e-01
2.024492e-01
2.022688e-01
2.022379e-01
2.022114e-01
2.022581e-01
2.023306e-01
2.025154e-01
2.022707e-01
2.024141e-01
2.024376e-01
2.024108e-01
2.022282e-01
2.022313e-01
2.024850e-01
2.023450e-01
2.023188e-01
2.026062e-01
2.023146e-01
2.023564e-01
2.020326e-01
2.023154e-01
2.026065e-01
2.020328e-01
2.023557e-01
2.024821e-01
2.025526e-01
2.022648e-01
2.024045e-01
2.021012e-01
2.024452e-01
2.021809e-01
2.025700e-01
2.022791e-01
2.023914e-01
2.021850e-01
2.024976e-01
2.022279e-01
2.024410e-01
2.021701e-01
2.025227e-01
2.022403e-01
2.024291e-01
2.021371e-01
2.025304e-01
2.022562e-01
2.024128e-01
2.021310e-01
2.026115e-01
2.023125e-01
2.023585e-01
2.020256e-01
2.026119e-01
2.023132e-01
2.023579e-01
2.020260e-01
2.022392e-01
2.022742e-01
2.023370e-01
7.775425e-01
2.023517e-01
2.025873e-01
2.022898e-01
2.024808e-01
2.022420e-01
2.024055e-01
2.021076e-01
2.022139e-01
2.023402e-01
2.020247e-01
2.026124e-01
2.023310e-01
2.026125e-01
2.023318e-01
2.023394e-01
2.020247e-01
2.021665e-01
2.025884e-01
2.025121e-01
2.022361e-01
2.024441e-01
2.024323e-01
2.021914e-01
2.025826e-01
2.022872e-01
2.023834e-01
2.020656e-01
2.022543e-01
2.022814e-01
2.026334e-01
2.023113e-01
2.024348e-01
2.021513e-01
2.024440e-01
2.022280e-01
2.021942e-01
2.025546e-01
2.023297e-01
2.026794e-01
2.023216e-01
2.023365e-01
2.025109e-01
2.024335e-01
2.022883e-01
2.023229e-01
8.509791e-01
2.023927e-01
2.022979e-01
2.023493e-01
2.024743e-01
2.023702e-01
7.863544e-01
2.023537e-01
2.024638e-01
2.021791e-01
2.024825e-01
2.022045e-01
2.023416e-01
2.024167e-01
2.025037e-01
2.025532e-01
2.023791e-01
2.527882e-01
2.027151e-01
2.023440e-01
2.023277e-01
8.585789e-01
2.024101e-01
2.021308e-01
2.026309e-01
2.023612e-01
2.023102e-01
7.767961e-01
2.023936e-01
2.026380e-01
2.024532e-01
2.023092e-01
2.022202e-01
2.023640e-01
7.287274e-01
2.023797e-01
2.023658e-01
7.623284e-01
8.115334e-01
2.023791e-01
2.020553e-01
2.024702e-01
2.022204e-01
2.025066e-01
2.023090e-01
2.024039e-01
2.022504e-01
2.023830e-01
2.022896e-01
7.377269e-01
2.025705e-01
2.022796e-01
2.023910e-01
2.020789e-01
2.023226e-01
2.025371e-01
2.022565e-01
2.025668e-01
2.022768e-01
2.023933e-01
2.020836e-01
2.024035e-01
2.021002e-01
2.023183e-01
8.132871e-01
2.026151e-01
2.023274e-01
2.023437e-01
2.020208e-01
2.023925e-01
2.024317e-01
2.024578e-01
2.021780e-01
2.024843e-01
2.022074e-01
2.025606e-01
2.024063e-01
2.025343e-01
2.022621e-01
2.026124e-01
2.023353e-01
2.023359e-01
2.020248e-01
2.024494e-01
2.022002e-01
2.026247e-01
2.023319e-01
2.023394e-01
2.020064e-01
2.025189e-01
2.022368e-01
2.024315e-01
2.021407e-01
2.023070e-01
2.023958e-01
2.022091e-01
2.026094e-01
2.023212e-01
2.023499e-01
2.020283e-01
2.023219e-01
2.026096e-01
2.020286e-01
2.023493e-01
2.026330e-01
2.023081e-01
2.023268e-01
2.025918e-01
2.022985e-01
2.023722e-01
2.020521e-01
2.025879e-01
2.022903e-01
2.025463e-01
2.022613e-01
2.024085e-01
2.021101e-01
2.025891e-01
2.022930e-01
2.024842e-01
2.022049e-01
2.024622e-01
2.021797e-01
2.023713e-01
2.026211e-01
2.023153e-01
2.023558e-01
2.941601e-01
2.022622e-01
2.025956e-01
2.022994e-01
2.023714e-01
2.020475e-01
2.023712e-01
2.020459e-01
2.023092e-01
8.218704e-01
2.025751e-01
2.022819e-01
2.026220e-01
2.023571e-01
2.023552e-01
7.091689e-01
2.023008e-01
7.610959e-01
2.023632e-01
2.023517e-01
2.024821e-01
2.024257e-01
2.024635e-01
2.021876e-01
2.023129e-01
2.024906e-01
2.023348e-01
2.025160e-01
2.022421e-01
2.024274e-01
2.021473e-01
2.022655e-01
2.025697e-01
2.022910e-01
2.022744e-01
2.023905e-01
2.024919e-01
2.022147e-01
2.024522e-01
2.021714e-01
2.023734e-01
2.025941e-01
2.023246e-01
2.025155e-01
2.022355e-01
2.024338e-01
2.021464e-01
2.022395e-01
2.022135e-01
2.023897e-01
2.022818e-01
6.435864e-01
2.025925e-01
2.022992e-01
2.023716e-01
2.020504e-01
2.023532e-01
8.184647e-01
2.026479e-01
2.023411e-01
2.023303e-01
7.715024e-01
2.023567e-01
2.022629e-01
2.026629e-01
2.026479e-01
2.023244e-01
2.023302e-01
2.023480e-01
2.023411e-01
8.147270e-01
7.750832e-01
2.022164e-01
2.023373e-01
2.020236e-01
2.026132e-01
2.023339e-01
2.024148e-01
2.023245e-01
6.783581e-01
2.022733e-01
2.023825e-01
7.564101e-01
2.024310e-01
2.022063e-01
2.024627e-01
2.021945e-01
2.024729e-01
2.022051e-01
2.026191e-01
2.023130e-01
2.023581e-01
3.936217e-01
2.025189e-01
2.025352e-01
2.023005e-01
2.023323e-01
2.020233e-01
2.026135e-01
2.023389e-01
2.025550e-01
2.022673e-01
2.022347e-01
2.024093e-01
2.022849e-01
2.027493e-01
2.023320e-01
2.023405e-01
8.733801e-01
2.022955e-01
2.024055e-01
2.023725e-01
6.872143e-01
2.025854e-01
2.023225e-01
2.023606e-01
2.025369e-01
2.022518e-01
2.024169e-01
2.021197e-01
2.024821e-01
2.022782e-01
2.023693e-01
2.023738e-01
3.123706e-01
2.023928e-01
2.023607e-01
8.034755e-01
2.023696e-01
2.026124e-01
2.023332e-01
2.023381e-01
2.020248e-01
2.026124e-01
2.023340e-01
2.023373e-01
2.020248e-01
2.024619e-01
2.023839e-01
2.023691e-01
2.022872e-01
2.023023e-01
6.467038e-01
7.861793e-01
2.026097e-01
2.023022e-01
2.026002e-01
2.023075e-01
2.023633e-01
2.020403e-01
2.023080e-01
2.026005e-01
2.020407e-01
2.023629e-01
2.023193e-01
2.024417e-01
2.021529e-01
2.025079e-01
2.022232e-01
2.026749e-01
2.023315e-01
2.021985e-01
2.023727e-01
2.023261e-01
2.026140e-01
2.020227e-01
2.023450e-01
2.026099e-01
2.023027e-01
2.023684e-01
4.988245e-01
2.026847e-01
2.023780e-01
2.022992e-01
2.024368e-01
2.021617e-01
2.026169e-01
2.022928e-01
7.784134e-01
2.025440e-01
2.024357e-01
2.024221e-01
2.023503e-01
2.023220e-01
8.648074e-01
2.025071e-01
2.025014e-01
2.022434e-01
2.022321e-01
2.024234e-01
2.022595e-01
2.026597e-01
2.023512e-01
2.023203e-01
8.160927e-01
2.025203e-01
2.023251e-01
2.023781e-01
2.024117e-01
2.023908e-01
6.495570e-01
2.023992e-01
2.022593e-01
2.021444e-01
2.023476e-01
8.804413e-01
2.026011e-01
2.023033e-01
2.022254e-01
2.024432e-01
2.021814e-01
2.023846e-01
4.658201e-01
2.025160e-01
2.022359e-01
2.025536e-01
2.022687e-01
2.024022e-01
2.021050e-01
2.026074e-01
2.023134e-01
2.023576e-01
2.020307e-01
2.023140e-01
2.026080e-01
2.020309e-01
2.023570e-01
2.026194e-01
2.023259e-01
2.023453e-01
2.020155e-01
2.025238e-01
2.026114e-01
2.023269e-01
2.023442e-01
2.020259e-01
2.023275e-01
2.026115e-01
2.020261e-01
2.023437e-01
2.024534e-01
2.022844e-01
2.022747e-01
2.158351e-01
2.023572e-01
2.024093e-01
2.021209e-01
2.024633e-01
2.025671e-01
2.022835e-01
2.026114e-01
2.023219e-01
2.023492e-01
2.020257e-01
2.025787e-01
2.022477e-01
2.024289e-01
2.024315e-01
2.021427e-01
2.023393e-01
8.641949e-01
2.026265e-01
2.023306e-01
2.023406e-01
2.020489e-01
2.024104e-01
2.021517e-01
2.022065e-01
2.023972e-01
2.718011e-01
2.024177e-01
2.021201e-01
2.025360e-01
2.022512e-01
2.024184e-01
2.021292e-01
2.022918e-01
2.023567e-01
2.025667e-01
2.023080e-01
2.026141e-01
2.023403e-01
2.023309e-01
2.020223e-01
2.025774e-01
2.022844e-01
2.023860e-01
2.020712e-01
2.022670e-01
2.024889e-01
2.022359e-01
2.026193e-01
2.023266e-01
2.023446e-01
2.020149e-01
2.024268e-01
2.021550e-01
2.023482e-01
2.023360e-01
2.020181e-01
2.026172e-01
2.023352e-01
2.023867e-01
2.024520e-01
2.023818e-01
2.020627e-01
2.025220e-01
2.022443e-01
2.024259e-01
2.021388e-01
2.023825e-01
2.020672e-01
2.025799e-01
2.022879e-01
2.022333e-01
2.025916e-01
2.023830e-01
2.024383e-01
2.021830e-01
2.023290e-01
2.022588e-01
2.021724e-01
2.025564e-01
2.022681e-01
2.024016e-01
2.020955e-01
2.023312e-01
2.026149e-01
2.020214e-01
2.023400e-01
2.024651e-01
2.021905e-01
2.024764e-01
2.022022e-01
2.026248e-01
2.023102e-01
2.024665e-01
2.022408e-01
2.024553e-01
2.023597e-01
8.336264e-01
2.024272e-01
2.022492e-01
2.025085e-01
2.025698e-01
2.022782e-01
2.022687e-01
2.022163e-01
2.023018e-01
2.022690e-01
2.027948e-01
2.024017e-01
2.025420e-01
5.576237e-01
2.023047e-01
2.023811e-01
2.024768e-01
2.022121e-01
2.024548e-01
2.021883e-01
2.023202e-01
2.026102e-01
2.020278e-01
2.023509e-01
2.042332e-01
2.025012e-01
2.022230e-01
2.022434e-01
2.025389e-01
2.022794e-01
2.022940e-01
2.024973e-01
2.022543e-01
2.024447e-01
2.022528e-01
2.023621e-01
2.023627e-01
8.178702e-01
2.025354e-01
2.024676e-01
2.026580e-01
2.023151e-01
2.025409e-01
2.022621e-01
2.021747e-01
2.025088e-01
2.022424e-01
2.024276e-01
2.021559e-01
2.023488e-01
2.024172e-01
2.021206e-01
2.025361e-01
2.022520e-01
2.023444e-01
8.084958e-01
2.023308e-01
8.105429e-01
2.022335e-01
2.025232e-01
2.022646e-01
2.023467e-01
2.025827e-01
2.023022e-01
2.022315e-01
2.023536e-01
2.022546e-01
2.026329e-01
2.023276e-01
2.023436e-01
5.108252e-01
2.023832e-01
2.020671e-01
2.025793e-01
2.022872e-01
2.024947e-01
2.022220e-01
2.024473e-01
2.021685e-01
2.024037e-01
2.023568e-01
2.023369e-01
2.024317e-01
2.022365e-01
2.025238e-01
2.024979e-01
2.022852e-01
2.022717e-01
2.026356e-01
2.023415e-01
2.023298e-01
6.501645e-01
2.022907e-01
2.023949e-01
2.024477e-01
2.021615e-01
2.025005e-01
2.022193e-01
2.566366e-01
2.022208e-01
2.026236e-01
2.023088e-01
2.023624e-01
7.032268e-01
2.023958e-01
2.020870e-01
2.023973e-01
2.020936e-01
2.025899e-01
2.022908e-01
2.023801e-01
2.279191e-01
2.026227e-01
2.023103e-01
2.023731e-01
2.026658e-01
2.023438e-01
2.023277e-01
8.146762e-01
2.023219e-01
2.022723e-01
2.024332e-01
2.025623e-01
2.022733e-01
2.023969e-01
2.020916e-01
2.024723e-01
2.021907e-01
2.024732e-01
2.021922e-01
2.023191e-01
2.026163e-01
2.020198e-01
2.023520e-01
2.024099e-01
2.023428e-01
2.023669e-01
2.022443e-01
2.023286e-01
2.021893e-01
2.026158e-01
2.023184e-01
2.023527e-01
2.020195e-01
2.024214e-01
2.021751e-01
2.025610e-01
2.022717e-01
2.023979e-01
2.020898e-01
2.024472e-01
2.021673e-01
2.024399e-01
2.022325e-01
2.025551e-01
2.022694e-01
2.024963e-01
2.022939e-01
2.024801e-01
2.022037e-01
2.024633e-01
2.021861e-01
2.023551e-01
7.976229e-01
2.023005e-01
2.026581e-01
2.023152e-01
2.025922e-01
2.022975e-01
2.026129e-01
2.023342e-01
2.023371e-01
2.020240e-01
2.026320e-01
2.023207e-01
2.023505e-01
6.342532e-01
2.025806e-01
2.022871e-01
2.025633e-01
2.022737e-01
2.023963e-01
2.020884e-01
2.023319e-01
2.024887e-01
2.024525e-01
2.021666e-01
2.022136e-01
2.024951e-01
2.024624e-01
2.022536e-01
2.025475e-01
2.022622e-01
2.024565e-01
2.022094e-01
2.023606e-01
2.024766e-01
2.022141e-01
2.023864e-01
2.026057e-01
2.023066e-01
2.023644e-01
2.020344e-01
2.023648e-01
2.020363e-01
2.025575e-01
2.025467e-01
2.022597e-01
2.024088e-01
2.021087e-01
2.023873e-01
2.023006e-01
2.024223e-01
2.023454e-01
2.024892e-01
2.025904e-01
2.022942e-01
2.023765e-01
2.020546e-01
2.024270e-01
2.024139e-01
2.024906e-01
2.024729e-01
2.025730e-01
2.022805e-01
2.023899e-01
2.020779e-01
2.026258e-01
2.023239e-01
2.025587e-01
2.022701e-01
2.023997e-01
2.020936e-01
2.024941e-01
2.025437e-01
2.022611e-01
2.024060e-01
2.021154e-01
2.023405e-01
2.026130e-01
2.020238e-01
2.023307e-01
2.026276e-01
2.023188e-01
2.023526e-01
4.589761e-01
2.022655e-01
2.023729e-01
2.024176e-01
2.025336e-01
2.022514e-01
2.024179e-01
2.021250e-01
2.024236e-01
2.022187e-01
2.024847e-01
2.022168e-01
2.023342e-01
2.022264e-01
2.024860e-01
2.024039e-01
2.023146e-01
2.026067e-01
2.023168e-01
2.023543e-01
2.020319e-01
2.023174e-01
2.026070e-01
2.020320e-01
2.023536e-01
2.023442e-01
2.024686e-01
2.026206e-01
2.023349e-01
2.023364e-01
2.020136e-01
2.025195e-01
2.050325e-01
2.024582e-01
2.024298e-01
2.026084e-01
2.022991e-01
2.022863e-01
2.025216e-01
2.022451e-01
2.023071e-01
7.938192e-01
2.023970e-01
2.022627e-01
2.024645e-01
2.022692e-01
6.835967e-01
2.023854e-01
2.021967e-01
2.022973e-01
2.023871e-01
2.024873e-01
2.025520e-01
2.022734e-01
2.023721e-01
2.020495e-01
2.025742e-01
2.023137e-01
2.022519e-01
2.023810e-01
2.947939e-01
2.024545e-01
2.021958e-01
2.025820e-01
2.023736e-01
7.620917e-01
2.023095e-01
2.023375e-01
2.024685e-01
2.022279e-01
2.023429e-01
2.023081e-01
2.025873e-01
2.022890e-01
2.022156e-01
2.024938e-01
2.025231e-01
2.022593e-01
2.023995e-01
2.022341e-01
2.024122e-01
2.024552e-01
2.022295e-01
2.025284e-01
2.024572e-01
2.024889e-01
2.022099e-01
2.021753e-01
2.022856e-01
2.027112e-01
2.023240e-01
2.024673e-01
2.023446e-01
2.022050e-01
2.023933e-01
2.025810e-01
2.022864e-01
2.021875e-01
2.024097e-01
2.025999e-01
2.022982e-01
2.023727e-01
2.042878e-01
2.021854e-01
2.023813e-01
2.023562e-01
8.425038e-01
2.023207e-01
2.024096e-01
2.022158e-01
2.023810e-01
7.642746e-01
2.024319e-01
2.023906e-01
2.022806e-01
2.299331e-01
2.024656e-01
2.021733e-01
2.024789e-01
2.022108e-01
2.024429e-01
2.022208e-01
2.023700e-01
2.023938e-01
2.024396e-01
2.021614e-01
2.023187e-01
2.026101e-01
2.023236e-01
2.023475e-01
2.020276e-01
2.023242e-01
2.026103e-01
2.020277e-01
2.023469e-01
2.026096e-01
2.023181e-01
2.023529e-01
2.020280e-01
2.026890e-01
2.023299e-01
2.023414e-01
8.360001e-01
2.025951e-01
2.024300e-01
2.021375e-01
2.025211e-01
2.022382e-01
2.024102e-01
2.021127e-01
2.026194e-01
2.023181e-01
2.023530e-01
2.020169e-01
2.023737e-01
2.020474e-01
2.026460e-01
2.023191e-01
2.023637e-01
2.026121e-01
2.023310e-01
2.023402e-01
2.020251e-01
2.026121e-01
2.023313e-01
2.023399e-01
2.020252e-01
2.023784e-01
2.025471e-01
2.022607e-01
2.024088e-01
2.021075e-01
2.022951e-01
2.021957e-01
2.023806e-01
7.506126e-01
2.023956e-01
2.020883e-01
2.023876e-01
2.023728e-01
7.837947e-01
2.023484e-01
2.023440e-01
7.810566e-01
7.293268e-01
2.023668e-01
2.021605e-01
2.022938e-01
2.024090e-01
2.021069e-01
2.025470e-01
2.022604e-01
2.025622e-01
2.024125e-01
2.023257e-01
2.022521e-01
2.022444e-01
2.023258e-01
8.365704e-01
2.024146e-01
2.021489e-01
2.024453e-01
2.023772e-01
2.020587e-01
2.025859e-01
2.022933e-01
2.023421e-01
2.025994e-01
2.022978e-01
7.683889e-01
2.025956e-01
2.023028e-01
2.023679e-01
2.020471e-01
2.022466e-01
2.023263e-01
2.022207e-01
2.023996e-01
2.251935e-01
2.024510e-01
2.021815e-01
2.024227e-01
2.022454e-01
2.024853e-01